
  ___ ___ ___ _ _ _  
 |   |   |_  | | | | 
 | | | | | . | | | | 
 |__ |  _|___|_____|  1.4.0
 |___|_|             

User:   rasmus@AsusN550
Date:   Fri Nov  2 13:38:15 2018
Arch:   x86_64
Pid:    14678
Python: 3.6.3
gpaw:   /home/rasmus/anaconda3/lib/python3.6/site-packages/gpaw
_gpaw:  /home/rasmus/anaconda3/lib/python3.6/site-packages/
        _gpaw.cpython-36m-x86_64-linux-gnu.so
ase:    /home/rasmus/.local/lib/python3.6/site-packages/ase (version 3.16.2)
numpy:  /home/rasmus/.local/lib/python3.6/site-packages/numpy (version 1.15.1)
scipy:  /home/rasmus/.local/lib/python3.6/site-packages/scipy (version 1.1.0)
units:  Angstrom and eV
cores:  1

Input parameters:
  kpts: [7 7 7]
  mode: {ecut: 500.0,
         name: pw}
  nbands: -5
  occupations: {fixmagmom: True,
                name: fermi-dirac,
                width: 0.05}
  spinpol: True
  xc: PBE

System changes: positions, numbers, cell, pbc, initial_charges, initial_magmoms 

Initialize ...

Fe-setup:
  name: Iron
  id: 37abbd8d6c3c35915a9b583b742da910
  Z: 26
  valence: 8
  core: 18
  charge: 0.0
  file: /usr/share/gpaw-setups/Fe.PBE.gz
  cutoffs: 1.06(comp), 2.06(filt), 2.67(core), lmax=2
  valence states:
                energy  radius
    4s(2.00)    -5.291   1.164
    4p(0.00)    -1.326   1.058
    3d(6.00)    -7.505   1.058
    *s          21.920   1.164
    *p          25.885   1.058
    *d          19.706   1.058

  Using partial waves for Fe as LCAO basis

Reference energy: -69238.909200

Spin-polarized calculation.
Magnetic moment: 1.000000

Occupation numbers:
  Fixed magnetic moment
  Fermi-Dirac: width=0.0500 eV

Convergence criteria:
  Maximum total energy change: 0.0005 eV / electron
  Maximum integral of absolute density change: 0.0001 electrons
  Maximum integral of absolute eigenstate change: 4e-08 eV^2
  Maximum number of iterations: 333

Symmetries present (total): 16

  ( 1  0  0)  ( 1  0  0)  ( 1  0  0)  ( 1  0  0)  ( 1  0  0)  ( 1  0  0)
  ( 0  1  0)  ( 0  1  0)  ( 0  0  1)  ( 0  0  1)  ( 0  0 -1)  ( 0  0 -1)
  ( 0  0  1)  ( 0  0 -1)  ( 0  1  0)  ( 0 -1  0)  ( 0  1  0)  ( 0 -1  0)

  ( 1  0  0)  ( 1  0  0)  (-1  0  0)  (-1  0  0)  (-1  0  0)  (-1  0  0)
  ( 0 -1  0)  ( 0 -1  0)  ( 0  1  0)  ( 0  1  0)  ( 0  0  1)  ( 0  0  1)
  ( 0  0  1)  ( 0  0 -1)  ( 0  0  1)  ( 0  0 -1)  ( 0  1  0)  ( 0 -1  0)

  (-1  0  0)  (-1  0  0)  (-1  0  0)  (-1  0  0)
  ( 0  0 -1)  ( 0  0 -1)  ( 0 -1  0)  ( 0 -1  0)
  ( 0  1  0)  ( 0 -1  0)  ( 0  0  1)  ( 0  0 -1)

343 k-points: 7 x 7 x 7 Monkhorst-Pack grid
40 k-points in the irreducible part of the Brillouin zone
       k-points in crystal coordinates                weights
   0:     0.00000000    0.00000000    0.00000000          1/343
   1:     0.00000000    0.14285714    0.00000000          4/343
   2:     0.00000000    0.14285714    0.14285714          4/343
   3:     0.00000000    0.28571429    0.00000000          4/343
   4:     0.00000000    0.28571429    0.14285714          8/343
   5:     0.00000000    0.28571429    0.28571429          4/343
   6:     0.00000000    0.42857143    0.00000000          4/343
   7:     0.00000000    0.42857143    0.14285714          8/343
   8:     0.00000000    0.42857143    0.28571429          8/343
   9:     0.00000000    0.42857143    0.42857143          4/343
          ...
  39:     0.42857143    0.42857143    0.42857143          8/343

Wave functions: Plane wave expansion
  Cutoff energy: 500.000 eV
  Number of coefficients (min, max): 1177, 1209
  Pulay-stress correction: 0.000000 eV/Ang^3 (de/decut=0.000000)
  Using FFTW library
  ScaLapack parameters: grid=1x1, blocksize=None 

Eigensolver
   Davidson(niter=1, smin=None, normalize=True) 

Densities:
  Coarse grid: 30*15*15 grid
  Fine grid: 60*30*30 grid
  Total Charge: 0.000000 

Density mixing:
  Method: sum
  Backend: pulay
  Linear mixing parameter: 0.05
  Mixing with 5 old densities
  Damping of long wave oscillations: 50 

Hamiltonian:
  XC and Coulomb potentials evaluated on a 60*30*30 grid
  Using the PBE Exchange-Correlation functional
 

Memory estimate:
  Process memory now: 167.26 MiB
  Calculator: 31.36 MiB
    Density: 3.63 MiB
      Arrays: 1.80 MiB
      Localized functions: 1.31 MiB
      Mixer: 0.51 MiB
    Hamiltonian: 1.37 MiB
      Arrays: 1.34 MiB
      XC: 0.00 MiB
      Poisson: 0.00 MiB
      vbar: 0.03 MiB
    Wavefunctions: 26.36 MiB
      Arrays psit_nG: 19.19 MiB
      Eigensolver: 0.36 MiB
      Projections: 0.57 MiB
      Projectors: 5.45 MiB
      PW-descriptor: 0.80 MiB

Total number of cores used: 1

Number of atoms: 2
Number of atomic orbitals: 18
Number of bands in calculation: 13
Bands to converge: occupied states only
Number of valence electrons: 16

... initialized

Initializing position-dependent things.

Density initialized from atomic densities
Creating initial wave functions:
  13 bands from LCAO basis set

   .-------------.  
  /|             |  
 * |             |  
 | |             |  
 | .-------------.  
 |/             /   
 Fe-----Fe-----*    

Positions:
   0 Fe     0.000000    0.000000    0.000000    ( 0.0000,  0.0000,  0.5000)
   1 Fe     2.860000    0.000000    0.000000    ( 0.0000,  0.0000,  0.5000)

Unit cell:
           periodic     x           y           z      points  spacing
  1. axis:    yes    5.720000    0.000000    0.000000    30     0.1907
  2. axis:    yes    0.000000    2.860000    0.000000    15     0.1907
  3. axis:    yes    0.000000    0.000000    2.860000    15     0.1907

  Lengths:   5.720000   2.860000   2.860000
  Angles:   90.000000  90.000000  90.000000

Effective grid spacing dv^(1/3) = 0.1907

                     log10-error:    total        iterations:
           time      wfs    density  energy       fermi  poisson  magmom
iter:   1  13:38:24  +0.51   +inf   -11.937429    4               +1.0000
iter:   2  13:38:27  -0.27   +inf   -11.968504    4               +1.0000
iter:   3  13:38:30  -1.46   +inf   -11.975067    4               +1.0000
iter:   4  13:38:33  -1.31  -1.33   -11.869748    33              +1.0000
iter:   5  13:38:36  -0.38  -1.43   -11.760728    34              +1.0000
iter:   6  13:38:39  -1.13  -1.75   -11.798835    4               +1.0000
iter:   7  13:38:43  -1.65  -1.85   -11.825460    4               +1.0000
iter:   8  13:38:46  -1.46  -2.20   -11.832138    4               +1.0000
iter:   9  13:38:49  -2.09  -2.50   -11.836275    4               +1.0000
iter:  10  13:38:52  -2.34  -2.53   -11.839254    4               +1.0000
iter:  11  13:38:55  -1.63  -2.64   -11.856972    33              +1.0000
iter:  12  13:38:58  -2.39  -2.65   -11.861683    4               +1.0000
iter:  13  13:39:02  -2.92  -2.99   -11.863750    33              +1.0000
iter:  14  13:39:05  -3.40  -3.07   -11.865017    32              +1.0000
iter:  15  13:39:08  -3.23  -3.01   -11.866550    30              +1.0000
iter:  16  13:39:11  -2.86  -2.91   -11.862592    31              +1.0000
iter:  17  13:39:15  -4.05  -3.03   -11.862686    27              +1.0000
iter:  18  13:39:18  -3.30  -2.95   -11.862889    3               +1.0000
iter:  19  13:39:22  -3.36  -3.02   -11.864592    33              +1.0000
iter:  20  13:39:25  -4.26  -3.04   -11.865783    26              +1.0000
iter:  21  13:39:29  -3.78  -3.01   -11.868339    31              +1.0000
iter:  22  13:39:32  -3.52  -3.03   -11.872469    32              +1.0000
iter:  23  13:39:35  -2.38  -3.05   -11.884492    33              +1.0000
iter:  24  13:39:39  -2.60  -3.18   -11.888292    34              +1.0000
iter:  25  13:39:42  -1.69  -3.09   -11.857922    4               +1.0000
iter:  26  13:39:45  -1.93  -2.80   -11.872176    33              +1.0000
iter:  27  13:39:48  -3.53  -3.00   -11.872306    33              +1.0000
iter:  28  13:39:51  -4.40  -2.95   -11.872636    33              +1.0000
iter:  29  13:39:54  -2.18  -3.02   -11.885243    34              +1.0000
iter:  30  13:39:57  -2.98  -3.14   -11.893492    33              +1.0000
iter:  31  13:40:00  -2.79  -3.15   -11.896156    32              +1.0000
iter:  32  13:40:03  -3.38  -3.08   -11.895250    32              +1.0000
iter:  33  13:40:07  -3.75  -3.03   -11.896184    33              +1.0000
iter:  34  13:40:10  -4.09  -3.01   -11.897316    31              +1.0000
iter:  35  13:40:13  -4.23  -3.07   -11.897707    28              +1.0000
iter:  36  13:40:17  -3.09  -3.04   -11.900884    34              +1.0000
iter:  37  13:40:21  -3.32  -3.13   -11.901257    34              +1.0000
iter:  38  13:40:24  -2.36  -3.12   -11.908896    34              +1.0000
iter:  39  13:40:27  -1.80  -3.00   -11.899263    34              +1.0000
iter:  40  13:40:30  -2.19  -2.95   -11.905475    33              +1.0000
iter:  41  13:40:33  -3.01  -3.15   -11.907226    33              +1.0000
iter:  42  13:40:37  -2.71  -3.12   -11.905026    33              +1.0000
iter:  43  13:40:40  -3.54  -3.13   -11.904157    33              +1.0000
iter:  44  13:40:43  -3.83  -3.13   -11.904551    33              +1.0000
iter:  45  13:40:46  -3.92  -3.02   -11.903263    31              +1.0000
iter:  46  13:40:49  -3.65  -3.04   -11.903825    33              +1.0000
iter:  47  13:40:52  -3.67  -3.09   -11.905503    32              +1.0000
iter:  48  13:40:55  -4.02  -3.21   -11.905900    32              +1.0000
iter:  49  13:40:59  -2.90  -3.20   -11.913071    34              +1.0000
iter:  50  13:41:02  -2.73  -3.08   -11.910721    32              +1.0000
iter:  51  13:41:05  -3.37  -3.03   -11.914895    33              +1.0000
iter:  52  13:41:08  -3.31  -3.05   -11.915503    34              +1.0000
iter:  53  13:41:12  -3.39  -2.99   -11.912590    33              +1.0000
iter:  54  13:41:16  -3.47  -2.95   -11.911884    34              +1.0000
iter:  55  13:41:19  -3.07  -2.80   -11.903777    33              +1.0000
iter:  56  13:41:23  -2.59  -2.83   -11.908953    32              +1.0000
iter:  57  13:41:26  -3.65  -2.86   -11.910605    32              +1.0000
iter:  58  13:41:29  -3.17  -2.92   -11.907505    33              +1.0000
iter:  59  13:41:33  -3.19  -2.93   -11.902982    34              +1.0000
iter:  60  13:41:36  -2.83  -3.03   -11.907573    33              +1.0000
iter:  61  13:41:40  -3.27  -3.00   -11.903681    34              +1.0000
iter:  62  13:41:44  -3.48  -2.97   -11.899235    33              +1.0000
iter:  63  13:41:47  -3.01  -3.06   -11.899308    33              +1.0000
iter:  64  13:41:50  -2.65  -3.11   -11.902134    31              +1.0000
iter:  65  13:41:53  -2.48  -3.22   -11.912362    32              +1.0000
iter:  66  13:41:56  -2.18  -3.27   -11.914291    32              +1.0000
iter:  67  13:41:59  -3.01  -3.09   -11.916291    32              +1.0000
iter:  68  13:42:03  -3.17  -3.01   -11.912996    31              +1.0000
iter:  69  13:42:06  -4.05  -3.00   -11.913754    33              +1.0000
iter:  70  13:42:09  -3.58  -2.96   -11.920669    33              +1.0000
iter:  71  13:42:12  -2.90  -2.87   -11.914484    33              +1.0000
iter:  72  13:42:15  -3.02  -2.85   -11.905375    33              +1.0000
iter:  73  13:42:18  -3.05  -2.79   -11.902334    33              +1.0000
iter:  74  13:42:22  -3.00  -2.71   -11.904577    33              +1.0000
iter:  75  13:42:25  -3.66  -3.01   -11.905474    30              +1.0000
iter:  76  13:42:29  -3.32  -3.05   -11.901128    28              +1.0000
iter:  77  13:42:33  -3.71  -3.13   -11.899344    33              +1.0000
iter:  78  13:42:36  -3.01  -3.12   -11.901939    34              +1.0000
iter:  79  13:42:40  -3.92  -3.30   -11.902338    33              +1.0000
iter:  80  13:42:43  -3.98  -3.39   -11.903105    34              +1.0000
iter:  81  13:42:47  -2.94  -3.41   -11.907014    30              +1.0000
iter:  82  13:42:50  -3.15  -3.62   -11.907936    33              +1.0000
iter:  83  13:42:53  -3.75  -3.44   -11.908663    33              +1.0000
iter:  84  13:42:57  -4.01  -3.35   -11.909154    33              +1.0000
iter:  85  13:43:00  -4.03  -3.27   -11.908484    33              +1.0000
iter:  86  13:43:03  -4.50  -3.27   -11.908992    33              +1.0000
iter:  87  13:43:07  -4.55  -3.26   -11.908731    33              +1.0000
iter:  88  13:43:10  -4.41  -3.26   -11.910267    33              +1.0000
iter:  89  13:43:14  -2.82  -3.22   -11.903716    33              +1.0000
iter:  90  13:43:17  -2.63  -3.20   -11.908882    34              +1.0000
iter:  91  13:43:20  -3.85  -3.26   -11.909765    34              +1.0000
iter:  92  13:43:23  -3.08  -3.22   -11.905711    32              +1.0000
iter:  93  13:43:26  -3.27  -3.27   -11.906375    33              +1.0000
iter:  94  13:43:29  -2.68  -3.09   -11.907200    28              +1.0000
iter:  95  13:43:32  -3.08  -3.27   -11.908172    34              +1.0000
iter:  96  13:43:36  -3.16  -3.44   -11.908996    32              +1.0000
iter:  97  13:43:39  -3.79  -3.45   -11.911020    34              +1.0000
iter:  98  13:43:42  -3.16  -3.38   -11.910905    33              +1.0000
iter:  99  13:43:45  -3.85  -3.29   -11.912224    34              +1.0000
iter: 100  13:43:48  -3.85  -3.20   -11.911919    30              +1.0000
iter: 101  13:43:51  -3.64  -3.19   -11.908770    34              +1.0000
iter: 102  13:43:54  -3.59  -3.24   -11.910784    26              +1.0000
iter: 103  13:43:57  -3.31  -3.24   -11.906182    34              +1.0000
iter: 104  13:44:00  -2.90  -3.11   -11.911709    33              +1.0000
iter: 105  13:44:03  -3.82  -3.23   -11.913431    34              +1.0000
iter: 106  13:44:06  -3.04  -3.08   -11.917092    34              +1.0000
iter: 107  13:44:09  -2.41  -3.00   -11.902516    34              +1.0000
iter: 108  13:44:13  -2.28  -3.13   -11.912269    32              +1.0000
iter: 109  13:44:16  -3.45  -3.17   -11.910289    34              +1.0000
iter: 110  13:44:19  -3.58  -3.01   -11.906634    33              +1.0000
iter: 111  13:44:22  -3.60  -3.13   -11.907170    33              +1.0000
iter: 112  13:44:25  -3.02  -3.19   -11.914152    32              +1.0000
iter: 113  13:44:29  -3.55  -3.19   -11.919335    34              +1.0000
iter: 114  13:44:32  -2.83  -3.06   -11.916217    31              +1.0000
iter: 115  13:44:35  -3.55  -3.00   -11.912775    32              +1.0000
iter: 116  13:44:38  -3.83  -3.00   -11.910491    29              +1.0000
iter: 117  13:44:41  -3.42  -3.01   -11.911466    33              +1.0000
iter: 118  13:44:44  -3.40  -3.05   -11.910858    26              +1.0000
iter: 119  13:44:47  -3.66  -2.97   -11.906157    34              +1.0000
iter: 120  13:44:51  -3.29  -2.97   -11.905676    33              +1.0000
iter: 121  13:44:55  -3.49  -3.21   -11.906619    34              +1.0000
iter: 122  13:44:58  -2.76  -3.30   -11.915774    33              +1.0000
iter: 123  13:45:02  -2.97  -3.18   -11.919828    30              +1.0000
iter: 124  13:45:06  -3.12  -3.07   -11.921417    28              +1.0000
iter: 125  13:45:09  -2.73  -3.01   -11.914241    34              +1.0000
iter: 126  13:45:12  -3.33  -2.96   -11.917547    29              +1.0000
iter: 127  13:45:16  -3.39  -2.95   -11.911139    33              +1.0000
iter: 128  13:45:19  -3.10  -3.00   -11.899269    33              +1.0000
iter: 129  13:45:23  -2.94  -3.09   -11.898033    29              +1.0000
iter: 130  13:45:26  -2.07  -3.15   -11.905813    33              +1.0000
iter: 131  13:45:29  -2.06  -3.17   -11.907983    34              +1.0000
iter: 132  13:45:32  -2.32  -3.43   -11.913161    28              +1.0000
iter: 133  13:45:35  -2.76  -3.22   -11.914105    33              +1.0000
iter: 134  13:45:39  -2.86  -3.14   -11.910239    31              +1.0000
iter: 135  13:45:43  -2.24  -3.07   -11.925249    32              +1.0000
iter: 136  13:45:46  -2.46  -3.02   -11.927024    31              +1.0000
iter: 137  13:45:49  -2.60  -2.93   -11.918320    34              +1.0000
iter: 138  13:45:52  -3.50  -2.87   -11.918709    31              +1.0000
iter: 139  13:45:56  -3.15  -2.90   -11.915606    32              +1.0000
iter: 140  13:45:59  -2.25  -2.71   -11.938175    33              +1.0000
iter: 141  13:46:02  -1.85  -2.74   -11.903672    34              +1.0000
iter: 142  13:46:05  -1.90  -2.80   -11.874697    32              +1.0000
iter: 143  13:46:09  -1.60  -2.78   -11.905761    31              +1.0000
iter: 144  13:46:12  -1.04  -2.82   -11.895859    33              +1.0000
iter: 145  13:46:15  -1.74  -3.07   -11.928245    32              +1.0000
iter: 146  13:46:19  -1.78  -3.06   -11.923879    33              +1.0000
iter: 147  13:46:22  -2.78  -2.97   -11.934833    33              +1.0000
iter: 148  13:46:25  -1.92  -2.90   -11.908924    32              +1.0000
iter: 149  13:46:28  -2.84  -2.89   -11.910029    32              +1.0000
iter: 150  13:46:32  -3.23  -2.94   -11.911480    32              +1.0000
iter: 151  13:46:35  -3.18  -2.96   -11.905926    34              +1.0000
iter: 152  13:46:39  -2.89  -2.96   -11.906876    34              +1.0000
iter: 153  13:46:42  -2.30  -3.08   -11.914880    33              +1.0000
iter: 154  13:46:45  -3.26  -3.09   -11.922694    32              +1.0000
iter: 155  13:46:48  -1.87  -2.98   -11.907222    32              +1.0000
iter: 156  13:46:52  -3.36  -3.00   -11.905508    32              +1.0000
iter: 157  13:46:55  -3.04  -3.09   -11.906554    24              +1.0000
iter: 158  13:46:58  -2.43  -3.07   -11.911630    34              +1.0000
iter: 159  13:47:01  -3.14  -3.02   -11.919248    32              +1.0000
iter: 160  13:47:05  -2.54  -2.97   -11.921774    33              +1.0000
iter: 161  13:47:08  -3.03  -2.90   -11.934644    34              +1.0000
iter: 162  13:47:11  -2.52  -2.79   -11.946321    29              +1.0000
iter: 163  13:47:14  -1.96  -2.66   -11.924209    33              +1.0000
iter: 164  13:47:18  -3.03  -2.68   -11.911242    34              +1.0000
iter: 165  13:47:21  -2.93  -2.79   -11.908084    30              +1.0000
iter: 166  13:47:25  -3.02  -2.80   -11.904714    33              +1.0000
iter: 167  13:47:28  -2.73  -2.88   -11.915475    32              +1.0000
iter: 168  13:47:31  -1.66  -2.87   -11.931257    34              +1.0000
iter: 169  13:47:35  -2.44  -2.77   -11.960863    29              +1.0000
iter: 170  13:47:38  -1.95  -2.78   -11.969212    32              +1.0000
iter: 171  13:47:42  -1.74  -2.70   -11.907696    33              +1.0000
iter: 172  13:47:45  -2.41  -2.74   -11.885566    33              +1.0000
iter: 173  13:47:48  -1.58  -2.66   -11.909872    32              +1.0000
iter: 174  13:47:51  -2.91  -2.90   -11.909211    33              +1.0000
iter: 175  13:47:55  -3.28  -3.04   -11.909831    33              +1.0000
iter: 176  13:47:58  -2.85  -3.07   -11.916493    31              +1.0000
iter: 177  13:48:02  -2.99  -3.12   -11.917385    31              +1.0000
iter: 178  13:48:05  -3.58  -3.06   -11.920304    33              +1.0000
iter: 179  13:48:08  -3.21  -3.02   -11.929157    33              +1.0000
iter: 180  13:48:12  -2.98  -2.96   -11.936413    30              +1.0000
iter: 181  13:48:14  -2.49  -2.88   -11.923755    34              +1.0000
iter: 182  13:48:18  -1.61  -2.88   -11.873584    31              +1.0000
iter: 183  13:48:21  -1.40  -2.77   -11.912884    33              +1.0000
iter: 184  13:48:25  -1.77  -2.78   -11.921457    31              +1.0000
iter: 185  13:48:28  -1.47  -2.82   -11.900579    33              +1.0000
iter: 186  13:48:31  -1.68  -2.97   -11.941923    31              +1.0000
iter: 187  13:48:34  -1.90  -2.99   -11.976134    33              +1.0000
iter: 188  13:48:38  -2.05  -2.69   -11.983066    34              +1.0000
iter: 189  13:48:41  -2.56  -2.52   -11.992124    32              +1.0000
iter: 190  13:48:44  -2.83  -2.39   -12.003371    33              +1.0000
iter: 191  13:48:48  -2.75  -2.41   -11.992855    33              +1.0000
iter: 192  13:48:51  -2.45  -2.34   -11.961016    34              +1.0000
iter: 193  13:48:54  -2.32  -2.32   -11.917004    32              +1.0000
iter: 194  13:48:57  -1.54  -2.41   -11.979277    30              +1.0000
iter: 195  13:49:01  -1.49  -2.61   -11.899884    32              +1.0000
iter: 196  13:49:04  -1.15  -2.55   -11.952975    4               +1.0000
iter: 197  13:49:07  -2.00  -2.35   -11.967778    4               +1.0000
iter: 198  13:49:10  -1.46  -2.30   -11.956916    30              +1.0000
iter: 199  13:49:13  -1.70  -2.48   -11.888033    33              +1.0000
iter: 200  13:49:17  -1.65  -2.57   -11.911634    31              +1.0000
iter: 201  13:49:20  -1.29  -2.37   -12.084855    33              +1.0000
iter: 202  13:49:23  -1.08  -2.26   -12.046923    25              +1.0000
iter: 203  13:49:27  -1.36  -2.15   -11.878995    34              +1.0000
iter: 204  13:49:30  -1.72  -2.41   -11.846458    30              +1.0000
iter: 205  13:49:33  -1.45  -2.63   -11.914646    32              +1.0000
iter: 206  13:49:36  -1.45  -2.71   -11.960772    31              +1.0000
iter: 207  13:49:39  -1.91  -2.78   -11.978656    33              +1.0000
iter: 208  13:49:42  -1.94  -2.59   -12.001228    31              +1.0000
iter: 209  13:49:45  -2.39  -2.61   -12.040127    30              +1.0000
iter: 210  13:49:48  -2.08  -2.43   -12.025747    31              +1.0000
iter: 211  13:49:52  -2.32  -2.44   -12.095599    4               +1.0000
iter: 212  13:49:55  -2.73  -2.37   -12.180033    4               +1.0000
iter: 213  13:49:58  -1.17  -2.30   -11.952550    32              +1.0000
iter: 214  13:50:02  -1.27  -2.44   -11.762359    32              +1.0000
iter: 215  13:50:06  -0.59  -2.44   -11.960259    34              +1.0000
iter: 216  13:50:09  -0.64  -2.43   -11.879094    32              +1.0000
iter: 217  13:50:13  -1.61  -2.67   -11.925783    32              +1.0000
iter: 218  13:50:16  -1.35  -2.87   -11.957485    24              +1.0000
iter: 219  13:50:20  -2.06  -2.77   -11.969732    31              +1.0000
iter: 220  13:50:24  -2.28  -2.75   -12.005453    31              +1.0000
iter: 221  13:50:27  -2.20  -2.64   -12.026234    31              +1.0000
iter: 222  13:50:30  -2.35  -2.58   -12.013809    4               +1.0000
iter: 223  13:50:33  -2.59  -2.55   -12.012850    28              +1.0000
iter: 224  13:50:36  -2.04  -2.58   -11.965813    31              +1.0000
iter: 225  13:50:39  -1.25  -2.55   -11.975667    4               +1.0000
iter: 226  13:50:42  -1.11  -2.55   -12.184005    4               +1.0000
iter: 227  13:50:46  -0.48  -2.28   -11.784279    4               +1.0000
iter: 228  13:50:50  -0.75  -2.47   -11.942781    4               +1.0000
iter: 229  13:50:53  -1.62  -2.66   -12.018160    3               +1.0000
iter: 230  13:50:56  -1.90  -2.45   -12.180922    4               +1.0000
iter: 231  13:51:00  -1.77  -2.52   -12.428252    31              +1.0000
iter: 232  13:51:03  -1.06  -2.17   -12.318318    4               +1.0000
iter: 233  13:51:06  -1.44  -2.24   -12.159827    4               +1.0000
iter: 234  13:51:10  -0.89  -2.23   -12.444112    4               +1.0000
iter: 235  13:51:15  -2.10  -2.17   -12.493756    4               +1.0000
iter: 236  13:51:18  -1.53  -2.09   -12.387399    4               +1.0000
iter: 237  13:51:22  -1.23  -2.05   -12.613974    4               +1.0000
iter: 238  13:51:26  -1.13  -2.02   -12.575236    4               +1.0000
iter: 239  13:51:30  -0.88  -2.11   -12.529266    4               +1.0000
iter: 240  13:51:33  -0.94  -2.05   -12.099921    3               +1.0000
iter: 241  13:51:37  -1.62  -2.16   -12.023914    3               +1.0000
iter: 242  13:51:41  -1.07  -2.27   -12.293177    4               +1.0000
iter: 243  13:51:44  -1.44  -2.06   -12.288814    4               +1.0000
iter: 244  13:51:47  -2.33  -2.23   -12.254177    3               +1.0000
iter: 245  13:51:51  -1.36  -2.29   -11.976695    3               +1.0000
iter: 246  13:51:54  -1.78  -2.29   -11.970715    3               +1.0000
iter: 247  13:51:57  -1.12  -2.10   -12.238588    4               +1.0000
iter: 248  13:52:00  -2.20  -2.52   -12.388217    4               +1.0000
iter: 249  13:52:04  -1.90  -2.35   -12.371880    3               +1.0000
iter: 250  13:52:07  -2.23  -2.27   -12.301841    4               +1.0000
iter: 251  13:52:10  -1.82  -2.41   -12.433811    4               +1.0000
iter: 252  13:52:14  -0.72  -2.09   -11.896658    3               +1.0000
iter: 253  13:52:18  -0.93  -2.32   -12.096122    3               +1.0000
iter: 254  13:52:23  -1.88  -2.44   -12.000276    3               +1.0000
iter: 255  13:52:28  -1.62  -2.35   -12.071867    4               +1.0000
iter: 256  13:52:33  -2.21  -2.47   -12.019165    3               +1.0000
iter: 257  13:52:37  -1.27  -2.45   -12.217870    4               +1.0000
iter: 258  13:52:41  -1.78  -2.55   -12.203439    4               +1.0000
iter: 259  13:52:45  -1.85  -2.47   -12.338763    4               +1.0000
iter: 260  13:52:48  -1.39  -2.39   -12.626901    32              +1.0000
iter: 261  13:52:51  -0.76  -2.19   -12.348454    4               +1.0000
iter: 262  13:52:55  -2.29  -2.24   -12.373020    4               +1.0000
iter: 263  13:52:58  -2.21  -2.26   -12.445062    4               +1.0000
iter: 264  13:53:01  -1.34  -2.24   -12.699649    27              +1.0000
iter: 265  13:53:05  -0.77  -2.09   -12.390441    3               +1.0000
iter: 266  13:53:08  -1.95  -2.10   -12.362583    4               +1.0000
iter: 267  13:53:11  -1.86  -2.16   -12.272730    4               +1.0000
iter: 268  13:53:14  -2.06  -2.31   -12.327260    4               +1.0000
iter: 269  13:53:18  -1.52  -2.30   -12.160443    4               +1.0000
iter: 270  13:53:21  -2.05  -2.28   -12.180255    4               +1.0000
iter: 271  13:53:24  -0.98  -2.28   -12.484105    4               +1.0000
iter: 272  13:53:28  -1.13  -2.39   -12.857874    31              +1.0000
iter: 273  13:53:31  +0.08  -2.15   -11.889542    4               +1.0000
iter: 274  13:53:34  -0.96  -2.13   -11.981214    3               +1.0000
iter: 275  13:53:37  -0.97  -2.02   -12.297692    4               +1.0000
iter: 276  13:53:40  -1.31  -2.31   -12.212396    4               +1.0000
iter: 277  13:53:43  -0.86  -2.31   -11.800519    3               +1.0000
iter: 278  13:53:47  -0.04  -2.12   -12.595413    4               +1.0000
iter: 279  13:53:51  -0.73  -2.34   -12.543353    4               +1.0000
iter: 280  13:53:54  -2.10  -2.18   -12.591829    4               +1.0000
iter: 281  13:53:56  -1.11  -2.23   -12.909002    4               +1.0000
iter: 282  13:53:59  -0.11  -2.07   -12.088116    4               +1.0000
iter: 283  13:54:03  +0.24  -2.14   -13.163774    28              +1.0000
iter: 284  13:54:07  -0.51  -1.89   -13.129077    3               +1.0000
iter: 285  13:54:10  -1.20  -1.84   -13.017650    3               +1.0000
iter: 286  13:54:14  -1.59  -1.80   -12.837006    3               +1.0000
iter: 287  13:54:17  -1.53  -1.75   -12.921406    3               +1.0000
iter: 288  13:54:21  -0.58  -1.75   -13.139580    4               +1.0000
iter: 289  13:54:25  -0.51  -1.99   -12.626036    3               +1.0000
iter: 290  13:54:29  -0.61  -1.94   -12.390116    3               +1.0000
iter: 291  13:54:32  -0.58  -2.28   -12.709689    4               +1.0000
iter: 292  13:54:35  -0.69  -2.29   -13.169333    4               +1.0000
iter: 293  13:54:38  -1.17  -1.94   -13.278899    3               +1.0000
iter: 294  13:54:42  -1.44  -1.78   -13.149743    3               +1.0000
iter: 295  13:54:46  -1.48  -1.84   -12.916947    3               +1.0000
iter: 296  13:54:49  -1.31  -1.89   -13.082561    4               +1.0000
iter: 297  13:54:53  -0.58  -1.94   -13.408818    4               +1.0000
iter: 298  13:54:56  -1.23  -1.78   -13.516374    4               +1.0000
iter: 299  13:54:59  -1.38  -1.82   -13.411384    3               +1.0000
iter: 300  13:55:03  -1.72  -1.89   -13.395833    3               +1.0000
iter: 301  13:55:07  -1.38  -1.94   -13.192008    4               +1.0000
iter: 302  13:55:10  -2.05  -1.98   -13.054928    3               +1.0000
iter: 303  13:55:14  -1.44  -2.01   -12.855433    3               +1.0000
iter: 304  13:55:18  -1.21  -1.94   -12.996330    3               +1.0000
iter: 305  13:55:21  -2.51  -2.06   -12.974531    3               +1.0000
iter: 306  13:55:24  -1.88  -2.06   -12.919016    3               +1.0000
iter: 307  13:55:27  -1.64  -2.11   -12.886378    3               +1.0000
iter: 308  13:55:32  -0.70  -2.19   -13.270415    3               +1.0000
iter: 309  13:55:35  -1.56  -2.06   -13.445769    3               +1.0000
iter: 310  13:55:38  -1.75  -2.09   -13.502628    3               +1.0000
iter: 311  13:55:41  -1.35  -2.07   -13.337622    3               +1.0000
iter: 312  13:55:44  -1.96  -2.14   -13.385662    3               +1.0000
iter: 313  13:55:48  -1.34  -2.14   -13.549099    3               +1.0000
iter: 314  13:55:51  -1.67  -2.07   -13.440455    4               +1.0000
iter: 315  13:55:54  -1.40  -2.03   -13.583092    3               +1.0000
iter: 316  13:55:58  -1.16  -2.04   -13.382857    4               +1.0000
iter: 317  13:56:02  -1.55  -2.21   -13.482443    4               +1.0000
iter: 318  13:56:05  -1.57  -2.33   -13.624949    4               +1.0000
iter: 319  13:56:09  -2.22  -2.30   -13.673912    4               +1.0000
iter: 320  13:56:12  -1.82  -2.39   -13.716184    4               +1.0000
iter: 321  13:56:18  -2.07  -2.69   -13.787184    4               +1.0000
iter: 322  13:56:22  -2.36  -2.76   -13.772742    4               +1.0000
iter: 323  13:56:27  -2.86  -2.84   -13.772237    4               +1.0000
iter: 324  13:56:31  -2.41  -2.81   -13.735849    4               +1.0000
iter: 325  13:56:35  -2.26  -2.76   -13.771546    4               +1.0000
iter: 326  13:56:39  -2.92  -2.83   -13.801632    4               +1.0000
iter: 327  13:56:44  -2.60  -2.79   -13.769617    4               +1.0000
iter: 328  13:56:48  -1.98  -2.82   -13.847509    4               +1.0000
iter: 329  13:56:51  -2.03  -2.71   -13.790297    4               +1.0000
iter: 330  13:56:55  -2.62  -2.77   -13.805459    4               +1.0000
iter: 331  13:56:59  -2.10  -2.70   -13.762831    4               +1.0000
iter: 332  13:57:03  -3.01  -2.85   -13.775966    4               +1.0000
iter: 333  13:57:07  -2.67  -2.88   -13.812198    4               +1.0000

Did not converge!

Here are some tips:

1) Make sure the geometry and spin-state is physically sound.
2) Use less aggressive density mixing.
3) Solve the eigenvalue problem more accurately at each scf-step.
4) Use a smoother distribution function for the occupation numbers.
5) Try adding more empty states.
6) Use enough k-points.
7) Don't let your structure optimization algorithm take too large steps.
8) Solve the Poisson equation more accurately.
9) Better initial guess for the wave functions.

See details here:

    https://wiki.fysik.dtu.dk/gpaw/documentation/convergence.html


Timing:                              incl.     excl.
-----------------------------------------------------------
Hamiltonian:                         0.389     0.000   0.0% |
 Atomic:                             0.298     0.009   0.0% |
  XC Correction:                     0.289     0.289   0.0% |
 Calculate atomic Hamiltonians:      0.007     0.007   0.0% |
 Communicate:                        0.000     0.000   0.0% |
 Initialize Hamiltonian:             0.000     0.000   0.0% |
 Poisson:                            0.000     0.000   0.0% |
 XC 3D grid:                         0.083     0.083   0.0% |
LCAO initialization:                 1.376     0.052   0.0% |
 LCAO eigensolver:                   0.369     0.002   0.0% |
  Calculate projections:             0.002     0.002   0.0% |
  DenseAtomicCorrection:             0.008     0.008   0.0% |
  Distribute overlap matrix:         0.001     0.001   0.0% |
  Orbital Layouts:                   0.012     0.012   0.0% |
  Potential matrix:                  0.257     0.257   0.0% |
  Sum over cells:                    0.087     0.087   0.0% |
 LCAO to grid:                       0.813     0.813   0.1% |
 Set positions (LCAO WFS):           0.141     0.001   0.0% |
  Basic WFS set positions:           0.001     0.001   0.0% |
  Basis functions set positions:     0.000     0.000   0.0% |
  TCI: Calculate S, T, P:            0.140     0.140   0.0% |
PWDescriptor:                        0.007     0.007   0.0% |
SCF-cycle:                        1129.978    31.044   2.7% ||
 Davidson:                         879.640   361.430  31.9% |------------|
  Subspace diag:                   225.667     2.332   0.2% |
   calc_h_matrix:                  150.764   150.764  13.3% |----|
   diagonalize:                     39.789    39.789   3.5% ||
   rotate_psi:                      32.782    32.782   2.9% ||
  calc. matrices:                  195.189   195.189  17.2% |------|
  diagonalize:                      65.216    65.216   5.8% |-|
  rotate_psi:                       32.139    32.139   2.8% ||
 Density:                           72.521     0.007   0.0% |
  Atomic density matrices:           1.201     1.201   0.1% |
  Mix:                               4.080     4.080   0.4% |
  Multipole moments:                 0.037     0.037   0.0% |
  Pseudo density:                   67.197    63.281   5.6% |-|
   Symmetrize density:               3.915     3.915   0.3% |
 Hamiltonian:                      143.757     0.157   0.0% |
  Atomic:                          104.882     3.681   0.3% |
   XC Correction:                  101.201   101.201   8.9% |---|
  Calculate atomic Hamiltonians:     2.421     2.421   0.2% |
  Communicate:                       0.002     0.002   0.0% |
  Poisson:                           0.102     0.102   0.0% |
  XC 3D grid:                       36.193    36.193   3.2% ||
 Orthonormalize:                     3.015     0.007   0.0% |
  calc_s_matrix:                     0.035     0.035   0.0% |
  inverse-cholesky:                  2.736     2.736   0.2% |
  projections:                       0.188     0.188   0.0% |
  rotate_psi_s:                      0.049     0.049   0.0% |
Set symmetry:                        0.013     0.013   0.0% |
Other:                               0.593     0.593   0.1% |
-----------------------------------------------------------
Total:                                      1132.355 100.0%

Memory usage: 167.26 MiB
Date: Fri Nov  2 13:57:08 2018
