
  ___ ___ ___ _ _ _  
 |   |   |_  | | | | 
 | | | | | . | | | | 
 |__ |  _|___|_____|  1.4.0
 |___|_|             

User:   rasmus@AsusN550
Date:   Thu Oct 25 10:06:48 2018
Arch:   x86_64
Pid:    6464
Python: 3.6.3
gpaw:   /home/rasmus/anaconda3/lib/python3.6/site-packages/gpaw
_gpaw:  /home/rasmus/anaconda3/lib/python3.6/site-packages/
        _gpaw.cpython-36m-x86_64-linux-gnu.so
ase:    /home/rasmus/.local/lib/python3.6/site-packages/ase (version 3.16.2)
numpy:  /home/rasmus/.local/lib/python3.6/site-packages/numpy (version 1.15.1)
scipy:  /home/rasmus/.local/lib/python3.6/site-packages/scipy (version 1.1.0)
units:  Angstrom and eV
cores:  1

Input parameters:
  kpts: [6 6 6]
  mode: {ecut: 400.0,
         name: pw}
  nbands: -10
  occupations: {name: fermi-dirac,
                width: 0.1}
  spinpol: True
  xc: PBE

System changes: positions, numbers, cell, pbc, initial_charges, initial_magmoms 

Initialize ...

Fe-setup:
  name: Iron
  id: 37abbd8d6c3c35915a9b583b742da910
  Z: 26
  valence: 8
  core: 18
  charge: 0.0
  file: /usr/share/gpaw-setups/Fe.PBE.gz
  cutoffs: 1.06(comp), 2.06(filt), 2.67(core), lmax=2
  valence states:
                energy  radius
    4s(2.00)    -5.291   1.164
    4p(0.00)    -1.326   1.058
    3d(6.00)    -7.505   1.058
    *s          21.920   1.164
    *p          25.885   1.058
    *d          19.706   1.058

  Using partial waves for Fe as LCAO basis

Reference energy: -69238.909200

Spin-polarized calculation.
Magnetic moment: 4.400000

Occupation numbers:
  Fermi-Dirac: width=0.1000 eV

Convergence criteria:
  Maximum total energy change: 0.0005 eV / electron
  Maximum integral of absolute density change: 0.0001 electrons
  Maximum integral of absolute eigenstate change: 4e-08 eV^2
  Maximum number of iterations: 333

Symmetries present (total): 48

  ( 1  0  0)  ( 1  0  0)  ( 1  0  0)  ( 1  0  0)  ( 1  0  0)  ( 1  0  0)
  ( 0  1  0)  ( 0  1  0)  ( 0  0  1)  ( 0  0  1)  ( 0  0 -1)  ( 0  0 -1)
  ( 0  0  1)  ( 0  0 -1)  ( 0  1  0)  ( 0 -1  0)  ( 0  1  0)  ( 0 -1  0)

  ( 1  0  0)  ( 1  0  0)  ( 0  1  0)  ( 0  1  0)  ( 0  1  0)  ( 0  1  0)
  ( 0 -1  0)  ( 0 -1  0)  ( 1  0  0)  ( 1  0  0)  ( 0  0  1)  ( 0  0  1)
  ( 0  0  1)  ( 0  0 -1)  ( 0  0  1)  ( 0  0 -1)  ( 1  0  0)  (-1  0  0)

  ( 0  1  0)  ( 0  1  0)  ( 0  1  0)  ( 0  1  0)  ( 0  0  1)  ( 0  0  1)
  ( 0  0 -1)  ( 0  0 -1)  (-1  0  0)  (-1  0  0)  ( 1  0  0)  ( 1  0  0)
  ( 1  0  0)  (-1  0  0)  ( 0  0  1)  ( 0  0 -1)  ( 0  1  0)  ( 0 -1  0)

  ( 0  0  1)  ( 0  0  1)  ( 0  0  1)  ( 0  0  1)  ( 0  0  1)  ( 0  0  1)
  ( 0  1  0)  ( 0  1  0)  ( 0 -1  0)  ( 0 -1  0)  (-1  0  0)  (-1  0  0)
  ( 1  0  0)  (-1  0  0)  ( 1  0  0)  (-1  0  0)  ( 0  1  0)  ( 0 -1  0)

  ( 0  0 -1)  ( 0  0 -1)  ( 0  0 -1)  ( 0  0 -1)  ( 0  0 -1)  ( 0  0 -1)
  ( 1  0  0)  ( 1  0  0)  ( 0  1  0)  ( 0  1  0)  ( 0 -1  0)  ( 0 -1  0)
  ( 0  1  0)  ( 0 -1  0)  ( 1  0  0)  (-1  0  0)  ( 1  0  0)  (-1  0  0)

  ( 0  0 -1)  ( 0  0 -1)  ( 0 -1  0)  ( 0 -1  0)  ( 0 -1  0)  ( 0 -1  0)
  (-1  0  0)  (-1  0  0)  ( 1  0  0)  ( 1  0  0)  ( 0  0  1)  ( 0  0  1)
  ( 0  1  0)  ( 0 -1  0)  ( 0  0  1)  ( 0  0 -1)  ( 1  0  0)  (-1  0  0)

  ( 0 -1  0)  ( 0 -1  0)  ( 0 -1  0)  ( 0 -1  0)  (-1  0  0)  (-1  0  0)
  ( 0  0 -1)  ( 0  0 -1)  (-1  0  0)  (-1  0  0)  ( 0  1  0)  ( 0  1  0)
  ( 1  0  0)  (-1  0  0)  ( 0  0  1)  ( 0  0 -1)  ( 0  0  1)  ( 0  0 -1)

  (-1  0  0)  (-1  0  0)  (-1  0  0)  (-1  0  0)  (-1  0  0)  (-1  0  0)
  ( 0  0  1)  ( 0  0  1)  ( 0  0 -1)  ( 0  0 -1)  ( 0 -1  0)  ( 0 -1  0)
  ( 0  1  0)  ( 0 -1  0)  ( 0  1  0)  ( 0 -1  0)  ( 0  0  1)  ( 0  0 -1)

216 k-points: 6 x 6 x 6 Monkhorst-Pack grid
10 k-points in the irreducible part of the Brillouin zone
       k-points in crystal coordinates                weights
   0:     0.08333333    0.08333333    0.08333333          8/216
   1:     0.25000000    0.08333333    0.08333333         24/216
   2:     0.25000000    0.25000000    0.08333333         24/216
   3:     0.25000000    0.25000000    0.25000000          8/216
   4:     0.41666667    0.08333333    0.08333333         24/216
   5:     0.41666667    0.25000000    0.08333333         48/216
   6:     0.41666667    0.25000000    0.25000000         24/216
   7:     0.41666667    0.41666667    0.08333333         24/216
   8:     0.41666667    0.41666667    0.25000000         24/216
   9:     0.41666667    0.41666667    0.41666667          8/216

Wave functions: Plane wave expansion
  Cutoff energy: 400.000 eV
  Number of coefficients (min, max): 420, 437
  Pulay-stress correction: 0.000000 eV/Ang^3 (de/decut=0.000000)
  Using FFTW library
  ScaLapack parameters: grid=1x1, blocksize=None 

Eigensolver
   Davidson(niter=1, smin=None, normalize=True) 

Densities:
  Coarse grid: 14*14*14 grid
  Fine grid: 28*28*28 grid
  Total Charge: 0.000000 

Density mixing:
  Method: sum
  Backend: pulay
  Linear mixing parameter: 0.05
  Mixing with 5 old densities
  Damping of long wave oscillations: 50 

Hamiltonian:
  XC and Coulomb potentials evaluated on a 28*28*28 grid
  Using the PBE Exchange-Correlation functional
 

Memory estimate:
  Process memory now: 70.34 MiB
  Calculator: 5.79 MiB
    Density: 1.48 MiB
      Arrays: 0.73 MiB
      Localized functions: 0.54 MiB
      Mixer: 0.21 MiB
    Hamiltonian: 0.55 MiB
      Arrays: 0.54 MiB
      XC: 0.00 MiB
      Poisson: 0.00 MiB
      vbar: 0.01 MiB
    Wavefunctions: 3.76 MiB
      Arrays psit_nG: 2.67 MiB
      Eigensolver: 0.23 MiB
      Projections: 0.22 MiB
      Projectors: 0.49 MiB
      PW-descriptor: 0.15 MiB

Total number of cores used: 1

Number of atoms: 2
Number of atomic orbitals: 18
Number of bands in calculation: 20
Bands to converge: occupied states only
Number of valence electrons: 16

... initialized

Initializing position-dependent things.

Density initialized from atomic densities
Creating initial wave functions:
  18 bands from LCAO basis set
  2 bands from random numbers

   .------.  
  /|      |  
 * |      |  
 | |  Fe  |  
 | .------.  
 |/      /   
 Fe-----*    

Positions:
   0 Fe     0.000000    0.000000    0.000000    ( 0.0000,  0.0000,  2.2000)
   1 Fe     1.430000    1.430000    1.430000    ( 0.0000,  0.0000,  2.2000)

Unit cell:
           periodic     x           y           z      points  spacing
  1. axis:    yes    2.860000    0.000000    0.000000    14     0.2043
  2. axis:    yes    0.000000    2.860000    0.000000    14     0.2043
  3. axis:    yes    0.000000    0.000000    2.860000    14     0.2043

  Lengths:   2.860000   2.860000   2.860000
  Angles:   90.000000  90.000000  90.000000

Effective grid spacing dv^(1/3) = 0.2043

                     log10-error:    total        iterations:
           time      wfs    density  energy       fermi  poisson  magmom
iter:   1  10:06:52  +3.55   +inf   -17.466874    2               +4.2514
iter:   2  10:06:53  +0.23   +inf   -17.592781    2               +4.2437
iter:   3  10:06:54  -0.94   +inf   -17.609130    2               +4.2430
iter:   4  10:06:55  -0.99  -1.43   -17.677588    3               +4.2053
iter:   5  10:06:57  -0.59  -1.48   -17.656902    32              +4.2651
iter:   6  10:06:58  -2.00  -1.82   -17.710016    3               +4.2871
iter:   7  10:07:00  -1.48  -1.94   -17.784286    3               +4.3306
iter:   8  10:07:01  -2.04  -2.73   -17.786389    3               +4.3256
iter:   9  10:07:02  -3.00  -3.16   -17.786696    2               +4.3254
iter:  10  10:07:04  -2.98  -3.14   -17.786563    3               +4.3291
iter:  11  10:07:05  -3.17  -2.85   -17.786512    3               +4.3225
iter:  12  10:07:06  -3.38  -2.94   -17.786927    3               +4.3239
iter:  13  10:07:08  -3.29  -2.65   -17.787200    3               +4.3359
iter:  14  10:07:09  -3.63  -2.90   -17.787106    3               +4.3415
iter:  15  10:07:11  -4.55  -3.72   -17.787167    2               +4.3393
iter:  16  10:07:13  -4.13  -3.47   -17.786981    2               +4.3469
iter:  17  10:07:14  -4.96  -4.23   -17.786987    2               +4.3468
iter:  18  10:07:15  -5.18  -4.20   -17.786922    2               +4.3500
iter:  19  10:07:17  -5.36  -4.10   -17.786926    2               +4.3500
iter:  20  10:07:18  -5.86  -4.11   -17.786953    2               +4.3488
iter:  21  10:07:19  -6.53  -4.06   -17.786952    2               +4.3489
iter:  22  10:07:21  -5.55  -4.08   -17.786959    2               +4.3479
iter:  23  10:07:22  -6.85  -4.20   -17.786957    2               +4.3480
iter:  24  10:07:24  -6.95  -4.26   -17.786957    2               +4.3480
iter:  25  10:07:25  -6.96  -4.39   -17.786949    2               +4.3485
iter:  26  10:07:26  -6.51  -4.45   -17.786931    1               +4.3493
iter:  27  10:07:27  -6.75  -4.53   -17.786927    2               +4.3495
iter:  28  10:07:28  -7.62  -4.60   -17.786928    2               +4.3495

Converged after 28 iterations.

Dipole moment: (0.000000, 0.000000, -0.000000) |e|*Ang

Total magnetic moment: (0.000000, 0.000000, 4.346699)
Local magnetic moments:
   0 Fe ( 0.000000,  0.000000,  2.254398)
   1 Fe ( 0.000000,  0.000000,  2.254355)

Energy contributions relative to reference atoms: (reference = -69238.909200)

Kinetic:        +10.065786
Potential:       -8.737322
External:        +0.000000
XC:             -19.671026
Entropy (-ST):   -0.079749
Local:           +0.595508
--------------------------
Free energy:    -17.826803
Extrapolated:   -17.786928

Spin contamination: 0.139447 electrons
Fermi level: 9.67676

Warning: Showing only first 2 kpts
                      Up                     Down
 Kpt  Band  Eigenvalues  Occupancy  Eigenvalues  Occupancy
  0     6      8.56286    0.03704     11.22824    0.00000
  0     7      8.56286    0.03704     11.30617    0.00000
  0     8      9.20582    0.03671     11.30617    0.00000
  0     9      9.69681    0.01667     11.84349    0.00000

  1     6      8.22421    0.11111     10.26275    0.00032
  1     7      8.38972    0.11111     10.81264    0.00000
  1     8      8.76582    0.11110     10.99034    0.00000
  1     9      8.99818    0.11099     11.55096    0.00000



Forces in eV/Ang:
  0 Fe   -0.00000   -0.00000   -0.00000
  1 Fe    0.00000   -0.00000    0.00000

Stress tensor:
     0.062988     0.000000     0.000000
     0.000000     0.062988     0.000000
     0.000000     0.000000     0.062988
System changes: positions, cell 

Initialize ...

Fe-setup:
  name: Iron
  id: 37abbd8d6c3c35915a9b583b742da910
  Z: 26
  valence: 8
  core: 18
  charge: 0.0
  file: /usr/share/gpaw-setups/Fe.PBE.gz
  cutoffs: 1.06(comp), 2.06(filt), 2.67(core), lmax=2
  valence states:
                energy  radius
    4s(2.00)    -5.291   1.164
    4p(0.00)    -1.326   1.058
    3d(6.00)    -7.505   1.058
    *s          21.920   1.164
    *p          25.885   1.058
    *d          19.706   1.058

  Using partial waves for Fe as LCAO basis

Reference energy: -69238.909200

Spin-polarized calculation.
Magnetic moment: 4.400000

Occupation numbers:
  Fermi-Dirac: width=0.1000 eV

Convergence criteria:
  Maximum total energy change: 0.0005 eV / electron
  Maximum integral of absolute density change: 0.0001 electrons
  Maximum integral of absolute eigenstate change: 4e-08 eV^2
  Maximum number of iterations: 333

Symmetries present (total): 6

  ( 1  0  0)  ( 1  0  0)  ( 0  1  0)  ( 0  1  0)  ( 0  0  1)  ( 0  0  1)
  ( 0  1  0)  ( 0  0  1)  ( 1  0  0)  ( 0  0  1)  ( 1  0  0)  ( 0  1  0)
  ( 0  0  1)  ( 0  1  0)  ( 0  0  1)  ( 1  0  0)  ( 0  1  0)  ( 1  0  0)

216 k-points: 6 x 6 x 6 Monkhorst-Pack grid
28 k-points in the irreducible part of the Brillouin zone
       k-points in crystal coordinates                weights
   0:     0.08333333    0.08333333   -0.08333333          6/216
   1:     0.08333333    0.08333333    0.08333333          2/216
   2:     0.25000000   -0.08333333   -0.08333333          6/216
   3:     0.25000000    0.08333333   -0.25000000         12/216
   4:     0.25000000    0.08333333   -0.08333333         12/216
   5:     0.25000000    0.08333333    0.08333333          6/216
   6:     0.25000000    0.25000000   -0.25000000          6/216
   7:     0.25000000    0.25000000   -0.08333333          6/216
   8:     0.25000000    0.25000000    0.08333333          6/216
   9:     0.25000000    0.25000000    0.25000000          2/216
          ...
  27:     0.41666667    0.41666667    0.41666667          2/216

Wave functions: Plane wave expansion
  Cutoff energy: 400.000 eV
  Number of coefficients (min, max): 423, 443
  Pulay-stress correction: 0.000000 eV/Ang^3 (de/decut=0.000000)
  Using FFTW library
  ScaLapack parameters: grid=1x1, blocksize=None 

Eigensolver
   Davidson(niter=1, smin=None, normalize=True) 

Densities:
  Coarse grid: 14*14*14 grid
  Fine grid: 28*28*28 grid
  Total Charge: 0.000000 

Density mixing:
  Method: sum
  Backend: pulay
  Linear mixing parameter: 0.05
  Mixing with 5 old densities
  Damping of long wave oscillations: 50 

Hamiltonian:
  XC and Coulomb potentials evaluated on a 28*28*28 grid
  Using the PBE Exchange-Correlation functional
 

Memory estimate:
  Process memory now: 114.54 MiB
  Calculator: 12.08 MiB
    Density: 1.48 MiB
      Arrays: 0.73 MiB
      Localized functions: 0.54 MiB
      Mixer: 0.21 MiB
    Hamiltonian: 0.55 MiB
      Arrays: 0.54 MiB
      XC: 0.00 MiB
      Poisson: 0.00 MiB
      vbar: 0.01 MiB
    Wavefunctions: 10.05 MiB
      Arrays psit_nG: 7.57 MiB
      Eigensolver: 0.23 MiB
      Projections: 0.62 MiB
      Projectors: 1.39 MiB
      PW-descriptor: 0.24 MiB

Total number of cores used: 1

Number of atoms: 2
Number of atomic orbitals: 18
Number of bands in calculation: 20
Bands to converge: occupied states only
Number of valence electrons: 16

... initialized

Initializing position-dependent things.

Density initialized from atomic densities
Creating initial wave functions:
  18 bands from LCAO basis set
  2 bands from random numbers

   .------.  
  /|      |  
 * |      |  
 | |  Fe  |  
 | .------.  
 |/      /   
 Fe-----*    

Positions:
   0 Fe     0.000000    0.000000    0.000000    ( 0.0000,  0.0000,  2.2000)
   1 Fe     1.453470    1.453470    1.453470    ( 0.0000,  0.0000,  2.2000)

Unit cell:
           periodic     x           y           z      points  spacing
  1. axis:    yes    2.874300    0.000000    0.000000    14     0.2053
  2. axis:    yes    0.000000    2.874300    0.000000    14     0.2053
  3. axis:    yes    0.000000    0.000000    2.874300    14     0.2053

  Lengths:   2.874300   2.874300   2.874300
  Angles:   90.000000  90.000000  90.000000

Effective grid spacing dv^(1/3) = 0.2053

                     log10-error:    total        iterations:
           time      wfs    density  energy       fermi  poisson  magmom
iter:   1  10:07:36  +3.54   +inf   -17.446677    29              +4.2820
iter:   2  10:07:38  +0.21   +inf   -17.567265    2               +4.2738
iter:   3  10:07:41  -0.96   +inf   -17.582921    2               +4.2729
iter:   4  10:07:43  -1.00  -1.43   -17.653883    3               +4.2320
iter:   5  10:07:46  -0.61  -1.48   -17.639971    33              +4.2988
iter:   6  10:07:49  -2.08  -1.82   -17.689543    3               +4.3208
iter:   7  10:07:51  -1.61  -1.94   -17.767671    3               +4.3795
iter:   8  10:07:54  -2.11  -2.81   -17.767848    3               +4.3713
iter:   9  10:07:57  -2.92  -2.82   -17.769312    2               +4.3758
iter:  10  10:07:59  -3.04  -2.93   -17.768014    3               +4.3660
iter:  11  10:08:02  -3.69  -2.70   -17.767501    3               +4.3621
iter:  12  10:08:04  -3.40  -2.59   -17.768430    3               +4.3723
iter:  13  10:08:07  -4.14  -3.02   -17.767910    2               +4.3733
iter:  14  10:08:10  -4.37  -3.13   -17.768190    2               +4.3753
iter:  15  10:08:12  -3.53  -3.17   -17.769913    2               +4.3912
iter:  16  10:08:15  -4.46  -3.32   -17.769890    3               +4.3980
iter:  17  10:08:17  -4.95  -3.73   -17.769893    2               +4.3981
iter:  18  10:08:20  -5.30  -3.76   -17.769887    2               +4.4006
iter:  19  10:08:23  -5.19  -3.87   -17.769883    2               +4.4038
iter:  20  10:08:25  -5.71  -4.05   -17.769872    2               +4.4052
iter:  21  10:08:28  -5.97  -4.13   -17.769849    2               +4.4069
iter:  22  10:08:31  -6.36  -4.35   -17.769840    1               +4.4076
iter:  23  10:08:35  -6.42  -4.42   -17.769829    2               +4.4082
iter:  24  10:08:37  -6.58  -4.52   -17.769825    2               +4.4084
iter:  25  10:08:40  -6.01  -4.57   -17.769809    2               +4.4102
iter:  26  10:08:43  -6.68  -4.66   -17.769808    2               +4.4103
iter:  27  10:08:45  -6.44  -4.71   -17.769795    2               +4.4114
iter:  28  10:08:48  -6.49  -4.81   -17.769780    2               +4.4127
iter:  29  10:08:51  -7.10  -4.91   -17.769775    2               +4.4132
iter:  30  10:08:54  -7.53  -4.93   -17.769773    2               +4.4133

Converged after 30 iterations.

Dipole moment: (0.024032, 0.024032, 0.024032) |e|*Ang

Total magnetic moment: (0.000000, 0.000000, 4.405775)
Local magnetic moments:
   0 Fe ( 0.000000,  0.000000,  2.283846)
   1 Fe ( 0.000000,  0.000000,  2.283854)

Energy contributions relative to reference atoms: (reference = -69238.909200)

Kinetic:         +9.296066
Potential:       -8.110795
External:        +0.000000
XC:             -19.481541
Entropy (-ST):   -0.083254
Local:           +0.568123
--------------------------
Free energy:    -17.811400
Extrapolated:   -17.769773

Spin contamination: 0.140976 electrons
Fermi level: 9.45778

Warning: Showing only first 2 kpts
                      Up                     Down
 Kpt  Band  Eigenvalues  Occupancy  Eigenvalues  Occupancy
  0     6      8.35027    0.02778     11.01479    0.00000
  0     7      8.35226    0.02778     11.11506    0.00000
  0     8      8.98307    0.02754     11.13766    0.00000
  0     9      9.45563    0.01404     11.63739    0.00000

  1     6      8.35103    0.00926     11.04000    0.00000
  1     7      8.35103    0.00926     11.11191    0.00000
  1     8      8.98711    0.00918     11.11191    0.00000
  1     9      9.45591    0.00467     11.63938    0.00000



Forces in eV/Ang:
  0 Fe    0.12357    0.12357    0.12357
  1 Fe   -0.12348   -0.12348   -0.12348

Stress tensor:
     0.076747    -0.000019    -0.000019
    -0.000019     0.076747    -0.000019
    -0.000019    -0.000019     0.076747
System changes: positions, cell 

Initialize ...

Fe-setup:
  name: Iron
  id: 37abbd8d6c3c35915a9b583b742da910
  Z: 26
  valence: 8
  core: 18
  charge: 0.0
  file: /usr/share/gpaw-setups/Fe.PBE.gz
  cutoffs: 1.06(comp), 2.06(filt), 2.67(core), lmax=2
  valence states:
                energy  radius
    4s(2.00)    -5.291   1.164
    4p(0.00)    -1.326   1.058
    3d(6.00)    -7.505   1.058
    *s          21.920   1.164
    *p          25.885   1.058
    *d          19.706   1.058

  Using partial waves for Fe as LCAO basis

Reference energy: -69238.909200

Spin-polarized calculation.
Magnetic moment: 4.400000

Occupation numbers:
  Fermi-Dirac: width=0.1000 eV

Convergence criteria:
  Maximum total energy change: 0.0005 eV / electron
  Maximum integral of absolute density change: 0.0001 electrons
  Maximum integral of absolute eigenstate change: 4e-08 eV^2
  Maximum number of iterations: 333

Symmetries present (total): 48

  ( 1  0  0)  ( 1  0  0)  ( 1  0  0)  ( 1  0  0)  ( 1  0  0)  ( 1  0  0)
  ( 0  1  0)  ( 0  1  0)  ( 0  0  1)  ( 0  0  1)  ( 0  0 -1)  ( 0  0 -1)
  ( 0  0  1)  ( 0  0 -1)  ( 0  1  0)  ( 0 -1  0)  ( 0  1  0)  ( 0 -1  0)

  ( 1  0  0)  ( 1  0  0)  ( 0  1  0)  ( 0  1  0)  ( 0  1  0)  ( 0  1  0)
  ( 0 -1  0)  ( 0 -1  0)  ( 1  0  0)  ( 1  0  0)  ( 0  0  1)  ( 0  0  1)
  ( 0  0  1)  ( 0  0 -1)  ( 0  0  1)  ( 0  0 -1)  ( 1  0  0)  (-1  0  0)

  ( 0  1  0)  ( 0  1  0)  ( 0  1  0)  ( 0  1  0)  ( 0  0  1)  ( 0  0  1)
  ( 0  0 -1)  ( 0  0 -1)  (-1  0  0)  (-1  0  0)  ( 1  0  0)  ( 1  0  0)
  ( 1  0  0)  (-1  0  0)  ( 0  0  1)  ( 0  0 -1)  ( 0  1  0)  ( 0 -1  0)

  ( 0  0  1)  ( 0  0  1)  ( 0  0  1)  ( 0  0  1)  ( 0  0  1)  ( 0  0  1)
  ( 0  1  0)  ( 0  1  0)  ( 0 -1  0)  ( 0 -1  0)  (-1  0  0)  (-1  0  0)
  ( 1  0  0)  (-1  0  0)  ( 1  0  0)  (-1  0  0)  ( 0  1  0)  ( 0 -1  0)

  ( 0  0 -1)  ( 0  0 -1)  ( 0  0 -1)  ( 0  0 -1)  ( 0  0 -1)  ( 0  0 -1)
  ( 1  0  0)  ( 1  0  0)  ( 0  1  0)  ( 0  1  0)  ( 0 -1  0)  ( 0 -1  0)
  ( 0  1  0)  ( 0 -1  0)  ( 1  0  0)  (-1  0  0)  ( 1  0  0)  (-1  0  0)

  ( 0  0 -1)  ( 0  0 -1)  ( 0 -1  0)  ( 0 -1  0)  ( 0 -1  0)  ( 0 -1  0)
  (-1  0  0)  (-1  0  0)  ( 1  0  0)  ( 1  0  0)  ( 0  0  1)  ( 0  0  1)
  ( 0  1  0)  ( 0 -1  0)  ( 0  0  1)  ( 0  0 -1)  ( 1  0  0)  (-1  0  0)

  ( 0 -1  0)  ( 0 -1  0)  ( 0 -1  0)  ( 0 -1  0)  (-1  0  0)  (-1  0  0)
  ( 0  0 -1)  ( 0  0 -1)  (-1  0  0)  (-1  0  0)  ( 0  1  0)  ( 0  1  0)
  ( 1  0  0)  (-1  0  0)  ( 0  0  1)  ( 0  0 -1)  ( 0  0  1)  ( 0  0 -1)

  (-1  0  0)  (-1  0  0)  (-1  0  0)  (-1  0  0)  (-1  0  0)  (-1  0  0)
  ( 0  0  1)  ( 0  0  1)  ( 0  0 -1)  ( 0  0 -1)  ( 0 -1  0)  ( 0 -1  0)
  ( 0  1  0)  ( 0 -1  0)  ( 0  1  0)  ( 0 -1  0)  ( 0  0  1)  ( 0  0 -1)

216 k-points: 6 x 6 x 6 Monkhorst-Pack grid
10 k-points in the irreducible part of the Brillouin zone
       k-points in crystal coordinates                weights
   0:     0.08333333    0.08333333    0.08333333          8/216
   1:     0.25000000    0.08333333    0.08333333         24/216
   2:     0.25000000    0.25000000    0.08333333         24/216
   3:     0.25000000    0.25000000    0.25000000          8/216
   4:     0.41666667    0.08333333    0.08333333         24/216
   5:     0.41666667    0.25000000    0.08333333         48/216
   6:     0.41666667    0.25000000    0.25000000         24/216
   7:     0.41666667    0.41666667    0.08333333         24/216
   8:     0.41666667    0.41666667    0.25000000         24/216
   9:     0.41666667    0.41666667    0.41666667          8/216

Wave functions: Plane wave expansion
  Cutoff energy: 400.000 eV
  Number of coefficients (min, max): 420, 437
  Pulay-stress correction: 0.000000 eV/Ang^3 (de/decut=0.000000)
  Using FFTW library
  ScaLapack parameters: grid=1x1, blocksize=None 

Eigensolver
   Davidson(niter=1, smin=None, normalize=True) 

Densities:
  Coarse grid: 14*14*14 grid
  Fine grid: 28*28*28 grid
  Total Charge: 0.000000 

Density mixing:
  Method: sum
  Backend: pulay
  Linear mixing parameter: 0.05
  Mixing with 5 old densities
  Damping of long wave oscillations: 50 

Hamiltonian:
  XC and Coulomb potentials evaluated on a 28*28*28 grid
  Using the PBE Exchange-Correlation functional
 

Memory estimate:
  Process memory now: 121.49 MiB
  Calculator: 5.79 MiB
    Density: 1.48 MiB
      Arrays: 0.73 MiB
      Localized functions: 0.54 MiB
      Mixer: 0.21 MiB
    Hamiltonian: 0.55 MiB
      Arrays: 0.54 MiB
      XC: 0.00 MiB
      Poisson: 0.00 MiB
      vbar: 0.01 MiB
    Wavefunctions: 3.76 MiB
      Arrays psit_nG: 2.67 MiB
      Eigensolver: 0.23 MiB
      Projections: 0.22 MiB
      Projectors: 0.49 MiB
      PW-descriptor: 0.15 MiB

Total number of cores used: 1

Number of atoms: 2
Number of atomic orbitals: 18
Number of bands in calculation: 20
Bands to converge: occupied states only
Number of valence electrons: 16

... initialized

Initializing position-dependent things.

Density initialized from atomic densities
Creating initial wave functions:
  18 bands from LCAO basis set
  2 bands from random numbers

   .------.  
  /|      |  
 * |      |  
 | |  Fe  |  
 | .------.  
 |/      /   
 Fe-----*    

Positions:
   0 Fe     0.000000    0.000000    0.000000    ( 0.0000,  0.0000,  2.2000)
   1 Fe     1.430000    1.430000    1.430000    ( 0.0000,  0.0000,  2.2000)

Unit cell:
           periodic     x           y           z      points  spacing
  1. axis:    yes    2.860000    0.000000    0.000000    14     0.2043
  2. axis:    yes    0.000000    2.860000    0.000000    14     0.2043
  3. axis:    yes    0.000000    0.000000    2.860000    14     0.2043

  Lengths:   2.860000   2.860000   2.860000
  Angles:   90.000000  90.000000  90.000000

Effective grid spacing dv^(1/3) = 0.2043

                     log10-error:    total        iterations:
           time      wfs    density  energy       fermi  poisson  magmom
iter:   1  10:09:00  +3.55   +inf   -17.466874    34              +4.2514
iter:   2  10:09:01  +0.23   +inf   -17.592781    2               +4.2437
iter:   3  10:09:02  -0.94   +inf   -17.609130    2               +4.2430
iter:   4  10:09:03  -0.99  -1.43   -17.677588    3               +4.2053
iter:   5  10:09:04  -0.59  -1.48   -17.656902    32              +4.2651
iter:   6  10:09:05  -2.00  -1.82   -17.710016    3               +4.2871
iter:   7  10:09:07  -1.48  -1.94   -17.784286    3               +4.3306
iter:   8  10:09:08  -2.04  -2.73   -17.786389    3               +4.3256
iter:   9  10:09:09  -3.00  -3.16   -17.786696    2               +4.3254
iter:  10  10:09:10  -2.98  -3.14   -17.786563    3               +4.3291
iter:  11  10:09:11  -3.17  -2.85   -17.786512    3               +4.3225
iter:  12  10:09:13  -3.38  -2.94   -17.786927    3               +4.3239
iter:  13  10:09:14  -3.29  -2.65   -17.787200    3               +4.3359
iter:  14  10:09:16  -3.63  -2.90   -17.787106    3               +4.3415
iter:  15  10:09:17  -4.55  -3.72   -17.787167    2               +4.3393
iter:  16  10:09:18  -4.13  -3.47   -17.786981    2               +4.3469
iter:  17  10:09:20  -4.96  -4.23   -17.786987    2               +4.3468
iter:  18  10:09:21  -5.18  -4.20   -17.786922    2               +4.3500
iter:  19  10:09:22  -5.36  -4.10   -17.786926    2               +4.3500
iter:  20  10:09:24  -5.86  -4.11   -17.786953    2               +4.3488
iter:  21  10:09:25  -6.53  -4.06   -17.786952    2               +4.3489
iter:  22  10:09:26  -5.55  -4.08   -17.786959    2               +4.3479
iter:  23  10:09:27  -6.85  -4.20   -17.786957    2               +4.3480
iter:  24  10:09:29  -6.95  -4.26   -17.786957    2               +4.3480
iter:  25  10:09:30  -6.96  -4.39   -17.786949    2               +4.3485
iter:  26  10:09:32  -6.51  -4.45   -17.786931    1               +4.3493
iter:  27  10:09:33  -6.75  -4.53   -17.786927    2               +4.3495
iter:  28  10:09:34  -7.62  -4.60   -17.786928    2               +4.3495

Converged after 28 iterations.

Dipole moment: (0.000000, 0.000000, -0.000000) |e|*Ang

Total magnetic moment: (0.000000, 0.000000, 4.346699)
Local magnetic moments:
   0 Fe ( 0.000000,  0.000000,  2.254398)
   1 Fe ( 0.000000,  0.000000,  2.254355)

Energy contributions relative to reference atoms: (reference = -69238.909200)

Kinetic:        +10.065786
Potential:       -8.737322
External:        +0.000000
XC:             -19.671026
Entropy (-ST):   -0.079749
Local:           +0.595508
--------------------------
Free energy:    -17.826803
Extrapolated:   -17.786928

Spin contamination: 0.139447 electrons
Fermi level: 9.67676

Warning: Showing only first 2 kpts
                      Up                     Down
 Kpt  Band  Eigenvalues  Occupancy  Eigenvalues  Occupancy
  0     6      8.56286    0.03704     11.22824    0.00000
  0     7      8.56286    0.03704     11.30617    0.00000
  0     8      9.20582    0.03671     11.30617    0.00000
  0     9      9.69681    0.01667     11.84349    0.00000

  1     6      8.22421    0.11111     10.26275    0.00032
  1     7      8.38972    0.11111     10.81264    0.00000
  1     8      8.76582    0.11110     10.99034    0.00000
  1     9      8.99818    0.11099     11.55096    0.00000


System changes: positions, cell 

Initialize ...

Fe-setup:
  name: Iron
  id: 37abbd8d6c3c35915a9b583b742da910
  Z: 26
  valence: 8
  core: 18
  charge: 0.0
  file: /usr/share/gpaw-setups/Fe.PBE.gz
  cutoffs: 1.06(comp), 2.06(filt), 2.67(core), lmax=2
  valence states:
                energy  radius
    4s(2.00)    -5.291   1.164
    4p(0.00)    -1.326   1.058
    3d(6.00)    -7.505   1.058
    *s          21.920   1.164
    *p          25.885   1.058
    *d          19.706   1.058

  Using partial waves for Fe as LCAO basis

Reference energy: -69238.909200

Spin-polarized calculation.
Magnetic moment: 4.400000

Occupation numbers:
  Fermi-Dirac: width=0.1000 eV

Convergence criteria:
  Maximum total energy change: 0.0005 eV / electron
  Maximum integral of absolute density change: 0.0001 electrons
  Maximum integral of absolute eigenstate change: 4e-08 eV^2
  Maximum number of iterations: 333

Symmetries present (total): 48

  ( 1  0  0)  ( 1  0  0)  ( 1  0  0)  ( 1  0  0)  ( 1  0  0)  ( 1  0  0)
  ( 0  1  0)  ( 0  1  0)  ( 0  0  1)  ( 0  0  1)  ( 0  0 -1)  ( 0  0 -1)
  ( 0  0  1)  ( 0  0 -1)  ( 0  1  0)  ( 0 -1  0)  ( 0  1  0)  ( 0 -1  0)

  ( 1  0  0)  ( 1  0  0)  ( 0  1  0)  ( 0  1  0)  ( 0  1  0)  ( 0  1  0)
  ( 0 -1  0)  ( 0 -1  0)  ( 1  0  0)  ( 1  0  0)  ( 0  0  1)  ( 0  0  1)
  ( 0  0  1)  ( 0  0 -1)  ( 0  0  1)  ( 0  0 -1)  ( 1  0  0)  (-1  0  0)

  ( 0  1  0)  ( 0  1  0)  ( 0  1  0)  ( 0  1  0)  ( 0  0  1)  ( 0  0  1)
  ( 0  0 -1)  ( 0  0 -1)  (-1  0  0)  (-1  0  0)  ( 1  0  0)  ( 1  0  0)
  ( 1  0  0)  (-1  0  0)  ( 0  0  1)  ( 0  0 -1)  ( 0  1  0)  ( 0 -1  0)

  ( 0  0  1)  ( 0  0  1)  ( 0  0  1)  ( 0  0  1)  ( 0  0  1)  ( 0  0  1)
  ( 0  1  0)  ( 0  1  0)  ( 0 -1  0)  ( 0 -1  0)  (-1  0  0)  (-1  0  0)
  ( 1  0  0)  (-1  0  0)  ( 1  0  0)  (-1  0  0)  ( 0  1  0)  ( 0 -1  0)

  ( 0  0 -1)  ( 0  0 -1)  ( 0  0 -1)  ( 0  0 -1)  ( 0  0 -1)  ( 0  0 -1)
  ( 1  0  0)  ( 1  0  0)  ( 0  1  0)  ( 0  1  0)  ( 0 -1  0)  ( 0 -1  0)
  ( 0  1  0)  ( 0 -1  0)  ( 1  0  0)  (-1  0  0)  ( 1  0  0)  (-1  0  0)

  ( 0  0 -1)  ( 0  0 -1)  ( 0 -1  0)  ( 0 -1  0)  ( 0 -1  0)  ( 0 -1  0)
  (-1  0  0)  (-1  0  0)  ( 1  0  0)  ( 1  0  0)  ( 0  0  1)  ( 0  0  1)
  ( 0  1  0)  ( 0 -1  0)  ( 0  0  1)  ( 0  0 -1)  ( 1  0  0)  (-1  0  0)

  ( 0 -1  0)  ( 0 -1  0)  ( 0 -1  0)  ( 0 -1  0)  (-1  0  0)  (-1  0  0)
  ( 0  0 -1)  ( 0  0 -1)  (-1  0  0)  (-1  0  0)  ( 0  1  0)  ( 0  1  0)
  ( 1  0  0)  (-1  0  0)  ( 0  0  1)  ( 0  0 -1)  ( 0  0  1)  ( 0  0 -1)

  (-1  0  0)  (-1  0  0)  (-1  0  0)  (-1  0  0)  (-1  0  0)  (-1  0  0)
  ( 0  0  1)  ( 0  0  1)  ( 0  0 -1)  ( 0  0 -1)  ( 0 -1  0)  ( 0 -1  0)
  ( 0  1  0)  ( 0 -1  0)  ( 0  1  0)  ( 0 -1  0)  ( 0  0  1)  ( 0  0 -1)

216 k-points: 6 x 6 x 6 Monkhorst-Pack grid
10 k-points in the irreducible part of the Brillouin zone
       k-points in crystal coordinates                weights
   0:     0.08333333    0.08333333    0.08333333          8/216
   1:     0.25000000    0.08333333    0.08333333         24/216
   2:     0.25000000    0.25000000    0.08333333         24/216
   3:     0.25000000    0.25000000    0.25000000          8/216
   4:     0.41666667    0.08333333    0.08333333         24/216
   5:     0.41666667    0.25000000    0.08333333         48/216
   6:     0.41666667    0.25000000    0.25000000         24/216
   7:     0.41666667    0.41666667    0.08333333         24/216
   8:     0.41666667    0.41666667    0.25000000         24/216
   9:     0.41666667    0.41666667    0.41666667          8/216

Wave functions: Plane wave expansion
  Cutoff energy: 400.000 eV
  Number of coefficients (min, max): 390, 404
  Pulay-stress correction: 0.000000 eV/Ang^3 (de/decut=0.000000)
  Using FFTW library
  ScaLapack parameters: grid=1x1, blocksize=None 

Eigensolver
   Davidson(niter=1, smin=None, normalize=True) 

Densities:
  Coarse grid: 14*14*14 grid
  Fine grid: 28*28*28 grid
  Total Charge: 0.000000 

Density mixing:
  Method: sum
  Backend: pulay
  Linear mixing parameter: 0.05
  Mixing with 5 old densities
  Damping of long wave oscillations: 50 

Hamiltonian:
  XC and Coulomb potentials evaluated on a 28*28*28 grid
  Using the PBE Exchange-Correlation functional
 

Memory estimate:
  Process memory now: 121.49 MiB
  Calculator: 5.54 MiB
    Density: 1.48 MiB
      Arrays: 0.73 MiB
      Localized functions: 0.54 MiB
      Mixer: 0.21 MiB
    Hamiltonian: 0.55 MiB
      Arrays: 0.54 MiB
      XC: 0.00 MiB
      Poisson: 0.00 MiB
      vbar: 0.01 MiB
    Wavefunctions: 3.51 MiB
      Arrays psit_nG: 2.47 MiB
      Eigensolver: 0.22 MiB
      Projections: 0.22 MiB
      Projectors: 0.46 MiB
      PW-descriptor: 0.15 MiB

Total number of cores used: 1

Number of atoms: 2
Number of atomic orbitals: 18
Number of bands in calculation: 20
Bands to converge: occupied states only
Number of valence electrons: 16

... initialized

Initializing position-dependent things.

Density initialized from atomic densities
Creating initial wave functions:
  18 bands from LCAO basis set
  2 bands from random numbers

   .------.  
  /|      |  
 * |      |  
 | .-Fe---.  
 |/      /   
 Fe-----*    

Positions:
   0 Fe     0.000000   -0.000000    0.000000    ( 0.0000,  0.0000,  2.2000)
   1 Fe     1.399001    1.399001    1.399001    ( 0.0000,  0.0000,  2.2000)

Unit cell:
           periodic     x           y           z      points  spacing
  1. axis:    yes    2.798003    0.000000    0.000000    14     0.1999
  2. axis:    yes    0.000000    2.798003    0.000000    14     0.1999
  3. axis:    yes    0.000000    0.000000    2.798003    14     0.1999

  Lengths:   2.798003   2.798003   2.798003
  Angles:   90.000000  90.000000  90.000000

Effective grid spacing dv^(1/3) = 0.1999

                     log10-error:    total        iterations:
           time      wfs    density  energy       fermi  poisson  magmom
iter:   1  10:09:38  +3.53   +inf   -17.469486    31              +4.1183
iter:   2  10:09:39  +0.24   +inf   -17.602352    3               +4.1119
iter:   3  10:09:40  -0.89   +inf   -17.620114    2               +4.1116
iter:   4  10:09:42  -0.94  -1.40   -17.678946    3               +4.0590
iter:   5  10:09:43  -0.50  -1.45   -17.631456    32              +4.1269
iter:   6  10:09:44  -1.91  -1.82   -17.686856    3               +4.1467
iter:   7  10:09:45  -1.43  -1.95   -17.759687    3               +4.1789
iter:   8  10:09:46  -2.01  -3.02   -17.761451    3               +4.1790
iter:   9  10:09:48  -2.90  -3.05   -17.761750    3               +4.1780
iter:  10  10:09:49  -2.91  -3.05   -17.761870    3               +4.1779
iter:  11  10:09:50  -3.55  -2.95   -17.761340    3               +4.1743
iter:  12  10:09:51  -3.13  -2.90   -17.762494    3               +4.1888
iter:  13  10:09:52  -4.29  -3.22   -17.762534    2               +4.1876
iter:  14  10:09:54  -4.38  -3.27   -17.762604    3               +4.1890
iter:  15  10:09:55  -4.34  -3.64   -17.762529    3               +4.1860
iter:  16  10:09:56  -4.04  -3.55   -17.762620    3               +4.1912
iter:  17  10:09:57  -4.53  -3.51   -17.762638    2               +4.1891
iter:  18  10:09:58  -5.52  -4.12   -17.762632    2               +4.1890
iter:  19  10:09:59  -6.52  -4.29   -17.762633    2               +4.1892
iter:  20  10:10:01  -7.00  -4.29   -17.762634    2               +4.1893
iter:  21  10:10:02  -5.87  -4.33   -17.762643    2               +4.1898
iter:  22  10:10:03  -6.08  -4.90   -17.762644    2               +4.1899
iter:  23  10:10:05  -6.84  -5.04   -17.762644    1               +4.1899
iter:  24  10:10:06  -6.77  -5.21   -17.762645    2               +4.1899
iter:  25  10:10:08  -7.35  -5.27   -17.762646    2               +4.1899
iter:  26  10:10:09  -7.35  -5.34   -17.762647    2               +4.1900
iter:  27  10:10:10  -7.69  -5.50   -17.762649    2               +4.1901

Converged after 27 iterations.

Dipole moment: (-0.000000, -0.000000, -0.000000) |e|*Ang

Total magnetic moment: (0.000000, 0.000000, 4.189348)
Local magnetic moments:
   0 Fe ( 0.000000,  0.000000,  2.164305)
   1 Fe ( 0.000000,  0.000000,  2.164330)

Energy contributions relative to reference atoms: (reference = -69238.909200)

Kinetic:        +16.503274
Potential:      -13.941934
External:        +0.000000
XC:             -20.895860
Entropy (-ST):   -0.071903
Local:           +0.607823
--------------------------
Free energy:    -17.798600
Extrapolated:   -17.762649

Spin contamination: 0.116958 electrons
Fermi level: 10.70984

Warning: Showing only first 2 kpts
                      Up                     Down
 Kpt  Band  Eigenvalues  Occupancy  Eigenvalues  Occupancy
  0     6      9.52842    0.03704     12.15816    0.00000
  0     7      9.52842    0.03704     12.20855    0.00000
  0     8     10.22916    0.03674     12.20855    0.00000
  0     9     10.77741    0.01249     12.82855    0.00000

  1     6      9.14641    0.11111     11.10797    0.00204
  1     7      9.32382    0.11111     11.66553    0.00001
  1     8      9.75810    0.11110     11.89673    0.00000
  1     9      9.99690    0.11102     12.48097    0.00000


System changes: positions, cell 

Initialize ...

Fe-setup:
  name: Iron
  id: 37abbd8d6c3c35915a9b583b742da910
  Z: 26
  valence: 8
  core: 18
  charge: 0.0
  file: /usr/share/gpaw-setups/Fe.PBE.gz
  cutoffs: 1.06(comp), 2.06(filt), 2.67(core), lmax=2
  valence states:
                energy  radius
    4s(2.00)    -5.291   1.164
    4p(0.00)    -1.326   1.058
    3d(6.00)    -7.505   1.058
    *s          21.920   1.164
    *p          25.885   1.058
    *d          19.706   1.058

  Using partial waves for Fe as LCAO basis

Reference energy: -69238.909200

Spin-polarized calculation.
Magnetic moment: 4.400000

Occupation numbers:
  Fermi-Dirac: width=0.1000 eV

Convergence criteria:
  Maximum total energy change: 0.0005 eV / electron
  Maximum integral of absolute density change: 0.0001 electrons
  Maximum integral of absolute eigenstate change: 4e-08 eV^2
  Maximum number of iterations: 333

Symmetries present (total): 48

  ( 1  0  0)  ( 1  0  0)  ( 1  0  0)  ( 1  0  0)  ( 1  0  0)  ( 1  0  0)
  ( 0  1  0)  ( 0  1  0)  ( 0  0  1)  ( 0  0  1)  ( 0  0 -1)  ( 0  0 -1)
  ( 0  0  1)  ( 0  0 -1)  ( 0  1  0)  ( 0 -1  0)  ( 0  1  0)  ( 0 -1  0)

  ( 1  0  0)  ( 1  0  0)  ( 0  1  0)  ( 0  1  0)  ( 0  1  0)  ( 0  1  0)
  ( 0 -1  0)  ( 0 -1  0)  ( 1  0  0)  ( 1  0  0)  ( 0  0  1)  ( 0  0  1)
  ( 0  0  1)  ( 0  0 -1)  ( 0  0  1)  ( 0  0 -1)  ( 1  0  0)  (-1  0  0)

  ( 0  1  0)  ( 0  1  0)  ( 0  1  0)  ( 0  1  0)  ( 0  0  1)  ( 0  0  1)
  ( 0  0 -1)  ( 0  0 -1)  (-1  0  0)  (-1  0  0)  ( 1  0  0)  ( 1  0  0)
  ( 1  0  0)  (-1  0  0)  ( 0  0  1)  ( 0  0 -1)  ( 0  1  0)  ( 0 -1  0)

  ( 0  0  1)  ( 0  0  1)  ( 0  0  1)  ( 0  0  1)  ( 0  0  1)  ( 0  0  1)
  ( 0  1  0)  ( 0  1  0)  ( 0 -1  0)  ( 0 -1  0)  (-1  0  0)  (-1  0  0)
  ( 1  0  0)  (-1  0  0)  ( 1  0  0)  (-1  0  0)  ( 0  1  0)  ( 0 -1  0)

  ( 0  0 -1)  ( 0  0 -1)  ( 0  0 -1)  ( 0  0 -1)  ( 0  0 -1)  ( 0  0 -1)
  ( 1  0  0)  ( 1  0  0)  ( 0  1  0)  ( 0  1  0)  ( 0 -1  0)  ( 0 -1  0)
  ( 0  1  0)  ( 0 -1  0)  ( 1  0  0)  (-1  0  0)  ( 1  0  0)  (-1  0  0)

  ( 0  0 -1)  ( 0  0 -1)  ( 0 -1  0)  ( 0 -1  0)  ( 0 -1  0)  ( 0 -1  0)
  (-1  0  0)  (-1  0  0)  ( 1  0  0)  ( 1  0  0)  ( 0  0  1)  ( 0  0  1)
  ( 0  1  0)  ( 0 -1  0)  ( 0  0  1)  ( 0  0 -1)  ( 1  0  0)  (-1  0  0)

  ( 0 -1  0)  ( 0 -1  0)  ( 0 -1  0)  ( 0 -1  0)  (-1  0  0)  (-1  0  0)
  ( 0  0 -1)  ( 0  0 -1)  (-1  0  0)  (-1  0  0)  ( 0  1  0)  ( 0  1  0)
  ( 1  0  0)  (-1  0  0)  ( 0  0  1)  ( 0  0 -1)  ( 0  0  1)  ( 0  0 -1)

  (-1  0  0)  (-1  0  0)  (-1  0  0)  (-1  0  0)  (-1  0  0)  (-1  0  0)
  ( 0  0  1)  ( 0  0  1)  ( 0  0 -1)  ( 0  0 -1)  ( 0 -1  0)  ( 0 -1  0)
  ( 0  1  0)  ( 0 -1  0)  ( 0  1  0)  ( 0 -1  0)  ( 0  0  1)  ( 0  0 -1)

216 k-points: 6 x 6 x 6 Monkhorst-Pack grid
10 k-points in the irreducible part of the Brillouin zone
       k-points in crystal coordinates                weights
   0:     0.08333333    0.08333333    0.08333333          8/216
   1:     0.25000000    0.08333333    0.08333333         24/216
   2:     0.25000000    0.25000000    0.08333333         24/216
   3:     0.25000000    0.25000000    0.25000000          8/216
   4:     0.41666667    0.08333333    0.08333333         24/216
   5:     0.41666667    0.25000000    0.08333333         48/216
   6:     0.41666667    0.25000000    0.25000000         24/216
   7:     0.41666667    0.41666667    0.08333333         24/216
   8:     0.41666667    0.41666667    0.25000000         24/216
   9:     0.41666667    0.41666667    0.41666667          8/216

Wave functions: Plane wave expansion
  Cutoff energy: 400.000 eV
  Number of coefficients (min, max): 409, 425
  Pulay-stress correction: 0.000000 eV/Ang^3 (de/decut=0.000000)
  Using FFTW library
  ScaLapack parameters: grid=1x1, blocksize=None 

Eigensolver
   Davidson(niter=1, smin=None, normalize=True) 

Densities:
  Coarse grid: 14*14*14 grid
  Fine grid: 28*28*28 grid
  Total Charge: 0.000000 

Density mixing:
  Method: sum
  Backend: pulay
  Linear mixing parameter: 0.05
  Mixing with 5 old densities
  Damping of long wave oscillations: 50 

Hamiltonian:
  XC and Coulomb potentials evaluated on a 28*28*28 grid
  Using the PBE Exchange-Correlation functional
 

Memory estimate:
  Process memory now: 121.49 MiB
  Calculator: 5.70 MiB
    Density: 1.48 MiB
      Arrays: 0.73 MiB
      Localized functions: 0.54 MiB
      Mixer: 0.21 MiB
    Hamiltonian: 0.55 MiB
      Arrays: 0.54 MiB
      XC: 0.00 MiB
      Poisson: 0.00 MiB
      vbar: 0.01 MiB
    Wavefunctions: 3.66 MiB
      Arrays psit_nG: 2.59 MiB
      Eigensolver: 0.22 MiB
      Projections: 0.22 MiB
      Projectors: 0.48 MiB
      PW-descriptor: 0.15 MiB

Total number of cores used: 1

Number of atoms: 2
Number of atomic orbitals: 18
Number of bands in calculation: 20
Bands to converge: occupied states only
Number of valence electrons: 16

... initialized

Initializing position-dependent things.

Density initialized from atomic densities
Creating initial wave functions:
  18 bands from LCAO basis set
  2 bands from random numbers

   .------.  
  /|      |  
 * |      |  
 | .-Fe---.  
 |/      /   
 Fe-----*    

Positions:
   0 Fe     0.000000   -0.000000    0.000000    ( 0.0000,  0.0000,  2.2000)
   1 Fe     1.417634    1.417634    1.417634    ( 0.0000,  0.0000,  2.2000)

Unit cell:
           periodic     x           y           z      points  spacing
  1. axis:    yes    2.835268    0.000000    0.000000    14     0.2025
  2. axis:    yes    0.000000    2.835268    0.000000    14     0.2025
  3. axis:    yes    0.000000    0.000000    2.835268    14     0.2025

  Lengths:   2.835268   2.835268   2.835268
  Angles:   90.000000  90.000000  90.000000

Effective grid spacing dv^(1/3) = 0.2025

                     log10-error:    total        iterations:
           time      wfs    density  energy       fermi  poisson  magmom
iter:   1  10:10:14  +3.54   +inf   -17.484309    3               +4.1994
iter:   2  10:10:14  +0.23   +inf   -17.611963    2               +4.1923
iter:   3  10:10:15  -0.93   +inf   -17.628864    2               +4.1919
iter:   4  10:10:17  -0.97  -1.42   -17.692883    3               +4.1534
iter:   5  10:10:18  -0.56  -1.47   -17.661510    32              +4.2118
iter:   6  10:10:19  -1.92  -1.82   -17.717568    3               +4.2318
iter:   7  10:10:21  -1.44  -1.94   -17.789741    3               +4.2599
iter:   8  10:10:22  -2.04  -2.90   -17.791468    2               +4.2580
iter:   9  10:10:24  -2.96  -3.11   -17.791751    2               +4.2575
iter:  10  10:10:25  -2.89  -3.10   -17.791846    2               +4.2586
iter:  11  10:10:27  -3.35  -2.90   -17.791595    3               +4.2553
iter:  12  10:10:28  -2.82  -2.99   -17.792034    3               +4.2701
iter:  13  10:10:30  -3.07  -2.91   -17.792318    3               +4.2637
iter:  14  10:10:31  -4.22  -3.39   -17.792290    2               +4.2648
iter:  15  10:10:33  -4.60  -3.60   -17.792261    2               +4.2658
iter:  16  10:10:35  -5.02  -3.51   -17.792252    2               +4.2667
iter:  17  10:10:37  -5.91  -4.20   -17.792255    2               +4.2667
iter:  18  10:10:38  -6.39  -4.24   -17.792253    2               +4.2668
iter:  19  10:10:40  -6.84  -4.29   -17.792251    2               +4.2668
iter:  20  10:10:41  -6.58  -4.31   -17.792248    2               +4.2668
iter:  21  10:10:43  -6.87  -4.44   -17.792244    1               +4.2668
iter:  22  10:10:44  -6.75  -4.57   -17.792238    1               +4.2669
iter:  23  10:10:46  -6.64  -4.76   -17.792236    2               +4.2671
iter:  24  10:10:47  -6.48  -4.75   -17.792230    2               +4.2672
iter:  25  10:10:49  -7.02  -5.34   -17.792229    1               +4.2673
iter:  26  10:10:50  -7.88  -5.36   -17.792229    1               +4.2673

Converged after 26 iterations.

Dipole moment: (0.000000, -0.000000, -0.000000) |e|*Ang

Total magnetic moment: (0.000000, 0.000000, 4.266519)
Local magnetic moments:
   0 Fe ( 0.000000,  0.000000,  2.209754)
   1 Fe ( 0.000000,  0.000000,  2.209698)

Energy contributions relative to reference atoms: (reference = -69238.909200)

Kinetic:        +12.336507
Potential:      -10.573998
External:        +0.000000
XC:             -20.107074
Entropy (-ST):   -0.074229
Local:           +0.589451
--------------------------
Free energy:    -17.829343
Extrapolated:   -17.792229

Spin contamination: 0.131270 electrons
Fermi level: 10.07567

Warning: Showing only first 2 kpts
                      Up                     Down
 Kpt  Band  Eigenvalues  Occupancy  Eigenvalues  Occupancy
  0     6      8.93565    0.03704     11.57809    0.00000
  0     7      8.93565    0.03704     11.65139    0.00000
  0     8      9.60418    0.03671     11.65139    0.00000
  0     9     10.11919    0.01455     12.21583    0.00000

  1     6      8.58215    0.11111     10.58094    0.00071
  1     7      8.75394    0.11111     11.14003    0.00000
  1     8      9.15101    0.11110     11.33206    0.00000
  1     9      9.38764    0.11100     11.90853    0.00000


System changes: positions, cell 

Initialize ...

Fe-setup:
  name: Iron
  id: 37abbd8d6c3c35915a9b583b742da910
  Z: 26
  valence: 8
  core: 18
  charge: 0.0
  file: /usr/share/gpaw-setups/Fe.PBE.gz
  cutoffs: 1.06(comp), 2.06(filt), 2.67(core), lmax=2
  valence states:
                energy  radius
    4s(2.00)    -5.291   1.164
    4p(0.00)    -1.326   1.058
    3d(6.00)    -7.505   1.058
    *s          21.920   1.164
    *p          25.885   1.058
    *d          19.706   1.058

  Using partial waves for Fe as LCAO basis

Reference energy: -69238.909200

Spin-polarized calculation.
Magnetic moment: 4.400000

Occupation numbers:
  Fermi-Dirac: width=0.1000 eV

Convergence criteria:
  Maximum total energy change: 0.0005 eV / electron
  Maximum integral of absolute density change: 0.0001 electrons
  Maximum integral of absolute eigenstate change: 4e-08 eV^2
  Maximum number of iterations: 333

Symmetries present (total): 48

  ( 1  0  0)  ( 1  0  0)  ( 1  0  0)  ( 1  0  0)  ( 1  0  0)  ( 1  0  0)
  ( 0  1  0)  ( 0  1  0)  ( 0  0  1)  ( 0  0  1)  ( 0  0 -1)  ( 0  0 -1)
  ( 0  0  1)  ( 0  0 -1)  ( 0  1  0)  ( 0 -1  0)  ( 0  1  0)  ( 0 -1  0)

  ( 1  0  0)  ( 1  0  0)  ( 0  1  0)  ( 0  1  0)  ( 0  1  0)  ( 0  1  0)
  ( 0 -1  0)  ( 0 -1  0)  ( 1  0  0)  ( 1  0  0)  ( 0  0  1)  ( 0  0  1)
  ( 0  0  1)  ( 0  0 -1)  ( 0  0  1)  ( 0  0 -1)  ( 1  0  0)  (-1  0  0)

  ( 0  1  0)  ( 0  1  0)  ( 0  1  0)  ( 0  1  0)  ( 0  0  1)  ( 0  0  1)
  ( 0  0 -1)  ( 0  0 -1)  (-1  0  0)  (-1  0  0)  ( 1  0  0)  ( 1  0  0)
  ( 1  0  0)  (-1  0  0)  ( 0  0  1)  ( 0  0 -1)  ( 0  1  0)  ( 0 -1  0)

  ( 0  0  1)  ( 0  0  1)  ( 0  0  1)  ( 0  0  1)  ( 0  0  1)  ( 0  0  1)
  ( 0  1  0)  ( 0  1  0)  ( 0 -1  0)  ( 0 -1  0)  (-1  0  0)  (-1  0  0)
  ( 1  0  0)  (-1  0  0)  ( 1  0  0)  (-1  0  0)  ( 0  1  0)  ( 0 -1  0)

  ( 0  0 -1)  ( 0  0 -1)  ( 0  0 -1)  ( 0  0 -1)  ( 0  0 -1)  ( 0  0 -1)
  ( 1  0  0)  ( 1  0  0)  ( 0  1  0)  ( 0  1  0)  ( 0 -1  0)  ( 0 -1  0)
  ( 0  1  0)  ( 0 -1  0)  ( 1  0  0)  (-1  0  0)  ( 1  0  0)  (-1  0  0)

  ( 0  0 -1)  ( 0  0 -1)  ( 0 -1  0)  ( 0 -1  0)  ( 0 -1  0)  ( 0 -1  0)
  (-1  0  0)  (-1  0  0)  ( 1  0  0)  ( 1  0  0)  ( 0  0  1)  ( 0  0  1)
  ( 0  1  0)  ( 0 -1  0)  ( 0  0  1)  ( 0  0 -1)  ( 1  0  0)  (-1  0  0)

  ( 0 -1  0)  ( 0 -1  0)  ( 0 -1  0)  ( 0 -1  0)  (-1  0  0)  (-1  0  0)
  ( 0  0 -1)  ( 0  0 -1)  (-1  0  0)  (-1  0  0)  ( 0  1  0)  ( 0  1  0)
  ( 1  0  0)  (-1  0  0)  ( 0  0  1)  ( 0  0 -1)  ( 0  0  1)  ( 0  0 -1)

  (-1  0  0)  (-1  0  0)  (-1  0  0)  (-1  0  0)  (-1  0  0)  (-1  0  0)
  ( 0  0  1)  ( 0  0  1)  ( 0  0 -1)  ( 0  0 -1)  ( 0 -1  0)  ( 0 -1  0)
  ( 0  1  0)  ( 0 -1  0)  ( 0  1  0)  ( 0 -1  0)  ( 0  0  1)  ( 0  0 -1)

216 k-points: 6 x 6 x 6 Monkhorst-Pack grid
10 k-points in the irreducible part of the Brillouin zone
       k-points in crystal coordinates                weights
   0:     0.08333333    0.08333333    0.08333333          8/216
   1:     0.25000000    0.08333333    0.08333333         24/216
   2:     0.25000000    0.25000000    0.08333333         24/216
   3:     0.25000000    0.25000000    0.25000000          8/216
   4:     0.41666667    0.08333333    0.08333333         24/216
   5:     0.41666667    0.25000000    0.08333333         48/216
   6:     0.41666667    0.25000000    0.25000000         24/216
   7:     0.41666667    0.41666667    0.08333333         24/216
   8:     0.41666667    0.41666667    0.25000000         24/216
   9:     0.41666667    0.41666667    0.41666667          8/216

Wave functions: Plane wave expansion
  Cutoff energy: 400.000 eV
  Number of coefficients (min, max): 415, 431
  Pulay-stress correction: 0.000000 eV/Ang^3 (de/decut=0.000000)
  Using FFTW library
  ScaLapack parameters: grid=1x1, blocksize=None 

Eigensolver
   Davidson(niter=1, smin=None, normalize=True) 

Densities:
  Coarse grid: 14*14*14 grid
  Fine grid: 28*28*28 grid
  Total Charge: 0.000000 

Density mixing:
  Method: sum
  Backend: pulay
  Linear mixing parameter: 0.05
  Mixing with 5 old densities
  Damping of long wave oscillations: 50 

Hamiltonian:
  XC and Coulomb potentials evaluated on a 28*28*28 grid
  Using the PBE Exchange-Correlation functional
 

Memory estimate:
  Process memory now: 121.49 MiB
  Calculator: 5.74 MiB
    Density: 1.48 MiB
      Arrays: 0.73 MiB
      Localized functions: 0.54 MiB
      Mixer: 0.21 MiB
    Hamiltonian: 0.55 MiB
      Arrays: 0.54 MiB
      XC: 0.00 MiB
      Poisson: 0.00 MiB
      vbar: 0.01 MiB
    Wavefunctions: 3.71 MiB
      Arrays psit_nG: 2.63 MiB
      Eigensolver: 0.23 MiB
      Projections: 0.22 MiB
      Projectors: 0.48 MiB
      PW-descriptor: 0.15 MiB

Total number of cores used: 1

Number of atoms: 2
Number of atomic orbitals: 18
Number of bands in calculation: 20
Bands to converge: occupied states only
Number of valence electrons: 16

... initialized

Initializing position-dependent things.

Density initialized from atomic densities
Creating initial wave functions:
  18 bands from LCAO basis set
  2 bands from random numbers

   .------.  
  /|      |  
 * |      |  
 | .-Fe---.  
 |/      /   
 Fe-----*    

Positions:
   0 Fe     0.000000   -0.000000    0.000000    ( 0.0000,  0.0000,  2.2000)
   1 Fe     1.422822    1.422822    1.422822    ( 0.0000,  0.0000,  2.2000)

Unit cell:
           periodic     x           y           z      points  spacing
  1. axis:    yes    2.845643    0.000000    0.000000    14     0.2033
  2. axis:    yes    0.000000    2.845643    0.000000    14     0.2033
  3. axis:    yes    0.000000    0.000000    2.845643    14     0.2033

  Lengths:   2.845643   2.845643   2.845643
  Angles:   90.000000  90.000000  90.000000

Effective grid spacing dv^(1/3) = 0.2033

                     log10-error:    total        iterations:
           time      wfs    density  energy       fermi  poisson  magmom
iter:   1  10:10:54  +3.55   +inf   -17.481240    33              +4.2211
iter:   2  10:10:56  +0.23   +inf   -17.606532    2               +4.2140
iter:   3  10:10:57  -0.95   +inf   -17.622790    2               +4.2135
iter:   4  10:10:59  -0.99  -1.42   -17.688572    3               +4.1761
iter:   5  10:11:00  -0.57  -1.47   -17.661941    33              +4.2342
iter:   6  10:11:02  -1.96  -1.82   -17.716516    3               +4.2542
iter:   7  10:11:03  -1.46  -1.94   -17.789289    2               +4.2872
iter:   8  10:11:05  -2.02  -2.79   -17.791273    3               +4.2836
iter:   9  10:11:06  -2.97  -3.14   -17.791575    2               +4.2833
iter:  10  10:11:07  -2.91  -3.12   -17.791558    3               +4.2858
iter:  11  10:11:09  -3.34  -2.85   -17.791488    2               +4.2812
iter:  12  10:11:10  -2.95  -3.01   -17.791677    3               +4.2991
iter:  13  10:11:11  -3.29  -3.07   -17.792063    3               +4.2919
iter:  14  10:11:12  -4.67  -3.53   -17.792042    2               +4.2926
iter:  15  10:11:14  -4.69  -3.68   -17.791963    2               +4.2957
iter:  16  10:11:15  -5.29  -4.00   -17.791938    2               +4.2966
iter:  17  10:11:16  -6.02  -4.41   -17.791937    2               +4.2967
iter:  18  10:11:18  -6.18  -4.44   -17.791935    2               +4.2967
iter:  19  10:11:19  -6.69  -4.43   -17.791937    2               +4.2967
iter:  20  10:11:21  -6.83  -4.44   -17.791937    2               +4.2966
iter:  21  10:11:22  -6.94  -4.54   -17.791933    2               +4.2966
iter:  22  10:11:24  -6.97  -4.63   -17.791933    2               +4.2966
iter:  23  10:11:25  -7.33  -4.75   -17.791933    2               +4.2966
iter:  24  10:11:27  -8.15  -4.87   -17.791932    2               +4.2967

Converged after 24 iterations.

Dipole moment: (0.000000, -0.000000, -0.000000) |e|*Ang

Total magnetic moment: (0.000000, 0.000000, 4.296316)
Local magnetic moments:
   0 Fe ( 0.000000,  0.000000,  2.226093)
   1 Fe ( 0.000000,  0.000000,  2.226031)

Energy contributions relative to reference atoms: (reference = -69238.909200)

Kinetic:        +11.446885
Potential:       -9.853496
External:        +0.000000
XC:             -19.923017
Entropy (-ST):   -0.076256
Local:           +0.575823
--------------------------
Free energy:    -17.830060
Extrapolated:   -17.791932

Spin contamination: 0.134927 electrons
Fermi level: 9.90568

Warning: Showing only first 2 kpts
                      Up                     Down
 Kpt  Band  Eigenvalues  Occupancy  Eigenvalues  Occupancy
  0     6      8.77670    0.03704     11.42654    0.00000
  0     7      8.77670    0.03704     11.50493    0.00000
  0     8      9.43568    0.03670     11.50493    0.00000
  0     9      9.93925    0.01544     12.05335    0.00000

  1     6      8.42986    0.11111     10.44390    0.00051
  1     7      8.60081    0.11111     11.00123    0.00000
  1     8      8.98739    0.11110     11.18495    0.00000
  1     9      9.22383    0.11099     11.75738    0.00000


System changes: positions, cell 

Initialize ...

Fe-setup:
  name: Iron
  id: 37abbd8d6c3c35915a9b583b742da910
  Z: 26
  valence: 8
  core: 18
  charge: 0.0
  file: /usr/share/gpaw-setups/Fe.PBE.gz
  cutoffs: 1.06(comp), 2.06(filt), 2.67(core), lmax=2
  valence states:
                energy  radius
    4s(2.00)    -5.291   1.164
    4p(0.00)    -1.326   1.058
    3d(6.00)    -7.505   1.058
    *s          21.920   1.164
    *p          25.885   1.058
    *d          19.706   1.058

  Using partial waves for Fe as LCAO basis

Reference energy: -69238.909200

Spin-polarized calculation.
Magnetic moment: 4.400000

Occupation numbers:
  Fermi-Dirac: width=0.1000 eV

Convergence criteria:
  Maximum total energy change: 0.0005 eV / electron
  Maximum integral of absolute density change: 0.0001 electrons
  Maximum integral of absolute eigenstate change: 4e-08 eV^2
  Maximum number of iterations: 333

Symmetries present (total): 48

  ( 1  0  0)  ( 1  0  0)  ( 1  0  0)  ( 1  0  0)  ( 1  0  0)  ( 1  0  0)
  ( 0  1  0)  ( 0  1  0)  ( 0  0  1)  ( 0  0  1)  ( 0  0 -1)  ( 0  0 -1)
  ( 0  0  1)  ( 0  0 -1)  ( 0  1  0)  ( 0 -1  0)  ( 0  1  0)  ( 0 -1  0)

  ( 1  0  0)  ( 1  0  0)  ( 0  1  0)  ( 0  1  0)  ( 0  1  0)  ( 0  1  0)
  ( 0 -1  0)  ( 0 -1  0)  ( 1  0  0)  ( 1  0  0)  ( 0  0  1)  ( 0  0  1)
  ( 0  0  1)  ( 0  0 -1)  ( 0  0  1)  ( 0  0 -1)  ( 1  0  0)  (-1  0  0)

  ( 0  1  0)  ( 0  1  0)  ( 0  1  0)  ( 0  1  0)  ( 0  0  1)  ( 0  0  1)
  ( 0  0 -1)  ( 0  0 -1)  (-1  0  0)  (-1  0  0)  ( 1  0  0)  ( 1  0  0)
  ( 1  0  0)  (-1  0  0)  ( 0  0  1)  ( 0  0 -1)  ( 0  1  0)  ( 0 -1  0)

  ( 0  0  1)  ( 0  0  1)  ( 0  0  1)  ( 0  0  1)  ( 0  0  1)  ( 0  0  1)
  ( 0  1  0)  ( 0  1  0)  ( 0 -1  0)  ( 0 -1  0)  (-1  0  0)  (-1  0  0)
  ( 1  0  0)  (-1  0  0)  ( 1  0  0)  (-1  0  0)  ( 0  1  0)  ( 0 -1  0)

  ( 0  0 -1)  ( 0  0 -1)  ( 0  0 -1)  ( 0  0 -1)  ( 0  0 -1)  ( 0  0 -1)
  ( 1  0  0)  ( 1  0  0)  ( 0  1  0)  ( 0  1  0)  ( 0 -1  0)  ( 0 -1  0)
  ( 0  1  0)  ( 0 -1  0)  ( 1  0  0)  (-1  0  0)  ( 1  0  0)  (-1  0  0)

  ( 0  0 -1)  ( 0  0 -1)  ( 0 -1  0)  ( 0 -1  0)  ( 0 -1  0)  ( 0 -1  0)
  (-1  0  0)  (-1  0  0)  ( 1  0  0)  ( 1  0  0)  ( 0  0  1)  ( 0  0  1)
  ( 0  1  0)  ( 0 -1  0)  ( 0  0  1)  ( 0  0 -1)  ( 1  0  0)  (-1  0  0)

  ( 0 -1  0)  ( 0 -1  0)  ( 0 -1  0)  ( 0 -1  0)  (-1  0  0)  (-1  0  0)
  ( 0  0 -1)  ( 0  0 -1)  (-1  0  0)  (-1  0  0)  ( 0  1  0)  ( 0  1  0)
  ( 1  0  0)  (-1  0  0)  ( 0  0  1)  ( 0  0 -1)  ( 0  0  1)  ( 0  0 -1)

  (-1  0  0)  (-1  0  0)  (-1  0  0)  (-1  0  0)  (-1  0  0)  (-1  0  0)
  ( 0  0  1)  ( 0  0  1)  ( 0  0 -1)  ( 0  0 -1)  ( 0 -1  0)  ( 0 -1  0)
  ( 0  1  0)  ( 0 -1  0)  ( 0  1  0)  ( 0 -1  0)  ( 0  0  1)  ( 0  0 -1)

216 k-points: 6 x 6 x 6 Monkhorst-Pack grid
10 k-points in the irreducible part of the Brillouin zone
       k-points in crystal coordinates                weights
   0:     0.08333333    0.08333333    0.08333333          8/216
   1:     0.25000000    0.08333333    0.08333333         24/216
   2:     0.25000000    0.25000000    0.08333333         24/216
   3:     0.25000000    0.25000000    0.25000000          8/216
   4:     0.41666667    0.08333333    0.08333333         24/216
   5:     0.41666667    0.25000000    0.08333333         48/216
   6:     0.41666667    0.25000000    0.25000000         24/216
   7:     0.41666667    0.41666667    0.08333333         24/216
   8:     0.41666667    0.41666667    0.25000000         24/216
   9:     0.41666667    0.41666667    0.41666667          8/216

Wave functions: Plane wave expansion
  Cutoff energy: 400.000 eV
  Number of coefficients (min, max): 416, 431
  Pulay-stress correction: 0.000000 eV/Ang^3 (de/decut=0.000000)
  Using FFTW library
  ScaLapack parameters: grid=1x1, blocksize=None 

Eigensolver
   Davidson(niter=1, smin=None, normalize=True) 

Densities:
  Coarse grid: 14*14*14 grid
  Fine grid: 28*28*28 grid
  Total Charge: 0.000000 

Density mixing:
  Method: sum
  Backend: pulay
  Linear mixing parameter: 0.05
  Mixing with 5 old densities
  Damping of long wave oscillations: 50 

Hamiltonian:
  XC and Coulomb potentials evaluated on a 28*28*28 grid
  Using the PBE Exchange-Correlation functional
 

Memory estimate:
  Process memory now: 121.49 MiB
  Calculator: 5.74 MiB
    Density: 1.48 MiB
      Arrays: 0.73 MiB
      Localized functions: 0.54 MiB
      Mixer: 0.21 MiB
    Hamiltonian: 0.55 MiB
      Arrays: 0.54 MiB
      XC: 0.00 MiB
      Poisson: 0.00 MiB
      vbar: 0.01 MiB
    Wavefunctions: 3.71 MiB
      Arrays psit_nG: 2.63 MiB
      Eigensolver: 0.23 MiB
      Projections: 0.22 MiB
      Projectors: 0.48 MiB
      PW-descriptor: 0.15 MiB

Total number of cores used: 1

Number of atoms: 2
Number of atomic orbitals: 18
Number of bands in calculation: 20
Bands to converge: occupied states only
Number of valence electrons: 16

... initialized

Initializing position-dependent things.

Density initialized from atomic densities
Creating initial wave functions:
  18 bands from LCAO basis set
  2 bands from random numbers

   .------.  
  /|      |  
 * |      |  
 | |  Fe  |  
 | .------.  
 |/      /   
 Fe-----*    

Positions:
   0 Fe     0.000000   -0.000000    0.000000    ( 0.0000,  0.0000,  2.2000)
   1 Fe     1.425366    1.425366    1.425366    ( 0.0000,  0.0000,  2.2000)

Unit cell:
           periodic     x           y           z      points  spacing
  1. axis:    yes    2.850732    0.000000    0.000000    14     0.2036
  2. axis:    yes    0.000000    2.850732    0.000000    14     0.2036
  3. axis:    yes    0.000000    0.000000    2.850732    14     0.2036

  Lengths:   2.850732   2.850732   2.850732
  Angles:   90.000000  90.000000  90.000000

Effective grid spacing dv^(1/3) = 0.2036

                     log10-error:    total        iterations:
           time      wfs    density  energy       fermi  poisson  magmom
iter:   1  10:11:32  +3.55   +inf   -17.474588    33              +4.2320
iter:   2  10:11:33  +0.23   +inf   -17.601230    2               +4.2247
iter:   3  10:11:33  -0.94   +inf   -17.617599    2               +4.2241
iter:   4  10:11:36  -0.98  -1.42   -17.684309    3               +4.1869
iter:   5  10:11:37  -0.58  -1.47   -17.659589    32              +4.2450
iter:   6  10:11:39  -1.97  -1.82   -17.713659    3               +4.2658
iter:   7  10:11:40  -1.45  -1.94   -17.786927    3               +4.3021
iter:   8  10:11:42  -2.02  -2.75   -17.789051    3               +4.2977
iter:   9  10:11:45  -2.97  -3.15   -17.789365    2               +4.2976
iter:  10  10:11:46  -2.94  -3.12   -17.789292    3               +4.3006
iter:  11  10:11:48  -3.27  -2.85   -17.789255    3               +4.2951
iter:  12  10:11:49  -2.71  -3.01   -17.789494    3               +4.3164
iter:  13  10:11:51  -3.03  -2.81   -17.789801    3               +4.3084
iter:  14  10:11:52  -4.96  -3.70   -17.789797    2               +4.3086
iter:  15  10:11:54  -4.81  -3.71   -17.789767    2               +4.3093
iter:  16  10:11:55  -5.97  -3.69   -17.789772    2               +4.3093
iter:  17  10:11:57  -4.47  -3.71   -17.789758    2               +4.3074
iter:  18  10:11:58  -4.72  -3.71   -17.789768    2               +4.3095
iter:  19  10:12:00  -5.64  -3.84   -17.789761    2               +4.3097
iter:  20  10:12:01  -5.81  -3.87   -17.789742    2               +4.3104
iter:  21  10:12:02  -6.59  -3.94   -17.789743    2               +4.3103
iter:  22  10:12:04  -5.46  -3.94   -17.789726    2               +4.3098
iter:  23  10:12:05  -5.29  -3.68   -17.789745    2               +4.3105
iter:  24  10:12:06  -5.86  -3.75   -17.789746    2               +4.3104
iter:  25  10:12:08  -6.28  -3.75   -17.789755    2               +4.3102
iter:  26  10:12:09  -5.53  -3.88   -17.789741    2               +4.3107
iter:  27  10:12:10  -6.17  -4.00   -17.789741    2               +4.3107
iter:  28  10:12:11  -6.54  -4.01   -17.789737    2               +4.3108
iter:  29  10:12:13  -6.64  -4.01   -17.789736    2               +4.3109
iter:  30  10:12:14  -5.41  -4.04   -17.789694    2               +4.3128
iter:  31  10:12:15  -6.13  -4.54   -17.789693    2               +4.3127
iter:  32  10:12:17  -7.00  -4.85   -17.789691    2               +4.3127
iter:  33  10:12:18  -7.07  -4.93   -17.789687    2               +4.3128
iter:  34  10:12:20  -7.19  -5.01   -17.789680    2               +4.3131
iter:  35  10:12:22  -7.79  -5.19   -17.789679    2               +4.3132

Converged after 35 iterations.

Dipole moment: (0.000000, -0.000000, 0.000000) |e|*Ang

Total magnetic moment: (0.000000, 0.000000, 4.311345)
Local magnetic moments:
   0 Fe ( 0.000000,  0.000000,  2.234505)
   1 Fe ( 0.000000,  0.000000,  2.234511)

Energy contributions relative to reference atoms: (reference = -69238.909200)

Kinetic:        +10.921459
Potential:       -9.430441
External:        +0.000000
XC:             -19.826231
Entropy (-ST):   -0.077448
Local:           +0.584259
--------------------------
Free energy:    -17.828402
Extrapolated:   -17.789679

Spin contamination: 0.136471 electrons
Fermi level: 9.82385

Warning: Showing only first 2 kpts
                      Up                     Down
 Kpt  Band  Eigenvalues  Occupancy  Eigenvalues  Occupancy
  0     6      8.70051    0.03704     11.35419    0.00000
  0     7      8.70051    0.03704     11.43341    0.00000
  0     8      9.35427    0.03670     11.43341    0.00000
  0     9      9.85337    0.01580     11.97676    0.00000

  1     6      8.35687    0.11111     10.37729    0.00044
  1     7      8.52543    0.11111     10.93361    0.00000
  1     8      8.90918    0.11110     11.11336    0.00000
  1     9      9.14317    0.11099     11.68376    0.00000


System changes: positions, cell 

Initialize ...

Fe-setup:
  name: Iron
  id: 37abbd8d6c3c35915a9b583b742da910
  Z: 26
  valence: 8
  core: 18
  charge: 0.0
  file: /usr/share/gpaw-setups/Fe.PBE.gz
  cutoffs: 1.06(comp), 2.06(filt), 2.67(core), lmax=2
  valence states:
                energy  radius
    4s(2.00)    -5.291   1.164
    4p(0.00)    -1.326   1.058
    3d(6.00)    -7.505   1.058
    *s          21.920   1.164
    *p          25.885   1.058
    *d          19.706   1.058

  Using partial waves for Fe as LCAO basis

Reference energy: -69238.909200

Spin-polarized calculation.
Magnetic moment: 4.400000

Occupation numbers:
  Fermi-Dirac: width=0.1000 eV

Convergence criteria:
  Maximum total energy change: 0.0005 eV / electron
  Maximum integral of absolute density change: 0.0001 electrons
  Maximum integral of absolute eigenstate change: 4e-08 eV^2
  Maximum number of iterations: 333

Symmetries present (total): 48

  ( 1  0  0)  ( 1  0  0)  ( 1  0  0)  ( 1  0  0)  ( 1  0  0)  ( 1  0  0)
  ( 0  1  0)  ( 0  1  0)  ( 0  0  1)  ( 0  0  1)  ( 0  0 -1)  ( 0  0 -1)
  ( 0  0  1)  ( 0  0 -1)  ( 0  1  0)  ( 0 -1  0)  ( 0  1  0)  ( 0 -1  0)

  ( 1  0  0)  ( 1  0  0)  ( 0  1  0)  ( 0  1  0)  ( 0  1  0)  ( 0  1  0)
  ( 0 -1  0)  ( 0 -1  0)  ( 1  0  0)  ( 1  0  0)  ( 0  0  1)  ( 0  0  1)
  ( 0  0  1)  ( 0  0 -1)  ( 0  0  1)  ( 0  0 -1)  ( 1  0  0)  (-1  0  0)

  ( 0  1  0)  ( 0  1  0)  ( 0  1  0)  ( 0  1  0)  ( 0  0  1)  ( 0  0  1)
  ( 0  0 -1)  ( 0  0 -1)  (-1  0  0)  (-1  0  0)  ( 1  0  0)  ( 1  0  0)
  ( 1  0  0)  (-1  0  0)  ( 0  0  1)  ( 0  0 -1)  ( 0  1  0)  ( 0 -1  0)

  ( 0  0  1)  ( 0  0  1)  ( 0  0  1)  ( 0  0  1)  ( 0  0  1)  ( 0  0  1)
  ( 0  1  0)  ( 0  1  0)  ( 0 -1  0)  ( 0 -1  0)  (-1  0  0)  (-1  0  0)
  ( 1  0  0)  (-1  0  0)  ( 1  0  0)  (-1  0  0)  ( 0  1  0)  ( 0 -1  0)

  ( 0  0 -1)  ( 0  0 -1)  ( 0  0 -1)  ( 0  0 -1)  ( 0  0 -1)  ( 0  0 -1)
  ( 1  0  0)  ( 1  0  0)  ( 0  1  0)  ( 0  1  0)  ( 0 -1  0)  ( 0 -1  0)
  ( 0  1  0)  ( 0 -1  0)  ( 1  0  0)  (-1  0  0)  ( 1  0  0)  (-1  0  0)

  ( 0  0 -1)  ( 0  0 -1)  ( 0 -1  0)  ( 0 -1  0)  ( 0 -1  0)  ( 0 -1  0)
  (-1  0  0)  (-1  0  0)  ( 1  0  0)  ( 1  0  0)  ( 0  0  1)  ( 0  0  1)
  ( 0  1  0)  ( 0 -1  0)  ( 0  0  1)  ( 0  0 -1)  ( 1  0  0)  (-1  0  0)

  ( 0 -1  0)  ( 0 -1  0)  ( 0 -1  0)  ( 0 -1  0)  (-1  0  0)  (-1  0  0)
  ( 0  0 -1)  ( 0  0 -1)  (-1  0  0)  (-1  0  0)  ( 0  1  0)  ( 0  1  0)
  ( 1  0  0)  (-1  0  0)  ( 0  0  1)  ( 0  0 -1)  ( 0  0  1)  ( 0  0 -1)

  (-1  0  0)  (-1  0  0)  (-1  0  0)  (-1  0  0)  (-1  0  0)  (-1  0  0)
  ( 0  0  1)  ( 0  0  1)  ( 0  0 -1)  ( 0  0 -1)  ( 0 -1  0)  ( 0 -1  0)
  ( 0  1  0)  ( 0 -1  0)  ( 0  1  0)  ( 0 -1  0)  ( 0  0  1)  ( 0  0 -1)

216 k-points: 6 x 6 x 6 Monkhorst-Pack grid
10 k-points in the irreducible part of the Brillouin zone
       k-points in crystal coordinates                weights
   0:     0.08333333    0.08333333    0.08333333          8/216
   1:     0.25000000    0.08333333    0.08333333         24/216
   2:     0.25000000    0.25000000    0.08333333         24/216
   3:     0.25000000    0.25000000    0.25000000          8/216
   4:     0.41666667    0.08333333    0.08333333         24/216
   5:     0.41666667    0.25000000    0.08333333         48/216
   6:     0.41666667    0.25000000    0.25000000         24/216
   7:     0.41666667    0.41666667    0.08333333         24/216
   8:     0.41666667    0.41666667    0.25000000         24/216
   9:     0.41666667    0.41666667    0.41666667          8/216

Wave functions: Plane wave expansion
  Cutoff energy: 400.000 eV
  Number of coefficients (min, max): 416, 431
  Pulay-stress correction: 0.000000 eV/Ang^3 (de/decut=0.000000)
  Using FFTW library
  ScaLapack parameters: grid=1x1, blocksize=None 

Eigensolver
   Davidson(niter=1, smin=None, normalize=True) 

Densities:
  Coarse grid: 14*14*14 grid
  Fine grid: 28*28*28 grid
  Total Charge: 0.000000 

Density mixing:
  Method: sum
  Backend: pulay
  Linear mixing parameter: 0.05
  Mixing with 5 old densities
  Damping of long wave oscillations: 50 

Hamiltonian:
  XC and Coulomb potentials evaluated on a 28*28*28 grid
  Using the PBE Exchange-Correlation functional
 

Memory estimate:
  Process memory now: 121.49 MiB
  Calculator: 5.75 MiB
    Density: 1.48 MiB
      Arrays: 0.73 MiB
      Localized functions: 0.54 MiB
      Mixer: 0.21 MiB
    Hamiltonian: 0.55 MiB
      Arrays: 0.54 MiB
      XC: 0.00 MiB
      Poisson: 0.00 MiB
      vbar: 0.01 MiB
    Wavefunctions: 3.71 MiB
      Arrays psit_nG: 2.63 MiB
      Eigensolver: 0.23 MiB
      Projections: 0.22 MiB
      Projectors: 0.48 MiB
      PW-descriptor: 0.15 MiB

Total number of cores used: 1

Number of atoms: 2
Number of atomic orbitals: 18
Number of bands in calculation: 20
Bands to converge: occupied states only
Number of valence electrons: 16

... initialized

Initializing position-dependent things.

Density initialized from atomic densities
Creating initial wave functions:
  18 bands from LCAO basis set
  2 bands from random numbers

   .------.  
  /|      |  
 * |      |  
 | | Fe   |  
 | .------.  
 |/      /   
 Fe-----*    

Positions:
   0 Fe     0.000000   -0.000000    0.000000    ( 0.0000,  0.0000,  2.2000)
   1 Fe     1.427132    1.427132    1.427132    ( 0.0000,  0.0000,  2.2000)

Unit cell:
           periodic     x           y           z      points  spacing
  1. axis:    yes    2.854265    0.000000    0.000000    14     0.2039
  2. axis:    yes    0.000000    2.854265    0.000000    14     0.2039
  3. axis:    yes    0.000000    0.000000    2.854265    14     0.2039

  Lengths:   2.854265   2.854265   2.854265
  Angles:   90.000000  90.000000  90.000000

Effective grid spacing dv^(1/3) = 0.2039

                     log10-error:    total        iterations:
           time      wfs    density  energy       fermi  poisson  magmom
iter:   1  10:12:26  +3.54   +inf   -17.470410    30              +4.2388
iter:   2  10:12:27  +0.23   +inf   -17.596822    2               +4.2319
iter:   3  10:12:28  -0.94   +inf   -17.613214    2               +4.2312
iter:   4  10:12:30  -0.99  -1.42   -17.680578    3               +4.1939
iter:   5  10:12:31  -0.59  -1.48   -17.657354    31              +4.2525
iter:   6  10:12:33  -1.97  -1.82   -17.711228    3               +4.2739
iter:   7  10:12:34  -1.47  -1.94   -17.785001    3               +4.3115
iter:   8  10:12:36  -2.05  -2.81   -17.786773    3               +4.3078
iter:   9  10:12:38  -2.98  -3.15   -17.787099    2               +4.3077
iter:  10  10:12:39  -2.94  -3.13   -17.787054    3               +4.3104
iter:  11  10:12:41  -3.19  -2.87   -17.786983    3               +4.3052
iter:  12  10:12:43  -3.33  -2.95   -17.787252    3               +4.3047
iter:  13  10:12:44  -3.42  -2.64   -17.787581    3               +4.3152
iter:  14  10:12:45  -3.40  -2.78   -17.787536    3               +4.3206
iter:  15  10:12:47  -4.55  -3.79   -17.787577    2               +4.3200
iter:  16  10:12:49  -4.61  -3.56   -17.787481    2               +4.3229
iter:  17  10:12:51  -5.76  -4.09   -17.787464    2               +4.3238
iter:  18  10:12:52  -6.18  -4.22   -17.787459    2               +4.3242
iter:  19  10:12:54  -6.68  -4.26   -17.787455    2               +4.3244
iter:  20  10:12:55  -6.35  -4.30   -17.787432    2               +4.3253
iter:  21  10:12:57  -6.74  -4.55   -17.787417    2               +4.3258
iter:  22  10:12:58  -7.02  -4.79   -17.787411    2               +4.3260
iter:  23  10:13:00  -7.45  -5.02   -17.787411    1               +4.3260

Converged after 23 iterations.

Dipole moment: (-0.000000, -0.000000, -0.000000) |e|*Ang

Total magnetic moment: (0.000000, 0.000000, 4.324705)
Local magnetic moments:
   0 Fe ( 0.000000,  0.000000,  2.241470)
   1 Fe ( 0.000000,  0.000000,  2.241553)

Energy contributions relative to reference atoms: (reference = -69238.909200)

Kinetic:        +10.709315
Potential:       -9.256530
External:        +0.000000
XC:             -19.775003
Entropy (-ST):   -0.078320
Local:           +0.573967
--------------------------
Free energy:    -17.826571
Extrapolated:   -17.787411

Spin contamination: 0.137710 electrons
Fermi level: 9.76757

Warning: Showing only first 2 kpts
                      Up                     Down
 Kpt  Band  Eigenvalues  Occupancy  Eigenvalues  Occupancy
  0     6      8.64706    0.03704     11.30511    0.00000
  0     7      8.64706    0.03704     11.38539    0.00000
  0     8      9.29759    0.03670     11.38539    0.00000
  0     9      9.79359    0.01612     11.92482    0.00000

  1     6      8.30568    0.11111     10.33267    0.00039
  1     7      8.47360    0.11111     10.88817    0.00000
  1     8      8.85432    0.11110     11.06546    0.00000
  1     9      9.08779    0.11099     11.63433    0.00000


System changes: positions, cell 

Initialize ...

Fe-setup:
  name: Iron
  id: 37abbd8d6c3c35915a9b583b742da910
  Z: 26
  valence: 8
  core: 18
  charge: 0.0
  file: /usr/share/gpaw-setups/Fe.PBE.gz
  cutoffs: 1.06(comp), 2.06(filt), 2.67(core), lmax=2
  valence states:
                energy  radius
    4s(2.00)    -5.291   1.164
    4p(0.00)    -1.326   1.058
    3d(6.00)    -7.505   1.058
    *s          21.920   1.164
    *p          25.885   1.058
    *d          19.706   1.058

  Using partial waves for Fe as LCAO basis

Reference energy: -69238.909200

Spin-polarized calculation.
Magnetic moment: 4.400000

Occupation numbers:
  Fermi-Dirac: width=0.1000 eV

Convergence criteria:
  Maximum total energy change: 0.0005 eV / electron
  Maximum integral of absolute density change: 0.0001 electrons
  Maximum integral of absolute eigenstate change: 4e-08 eV^2
  Maximum number of iterations: 333

Symmetries present (total): 48

  ( 1  0  0)  ( 1  0  0)  ( 1  0  0)  ( 1  0  0)  ( 1  0  0)  ( 1  0  0)
  ( 0  1  0)  ( 0  1  0)  ( 0  0  1)  ( 0  0  1)  ( 0  0 -1)  ( 0  0 -1)
  ( 0  0  1)  ( 0  0 -1)  ( 0  1  0)  ( 0 -1  0)  ( 0  1  0)  ( 0 -1  0)

  ( 1  0  0)  ( 1  0  0)  ( 0  1  0)  ( 0  1  0)  ( 0  1  0)  ( 0  1  0)
  ( 0 -1  0)  ( 0 -1  0)  ( 1  0  0)  ( 1  0  0)  ( 0  0  1)  ( 0  0  1)
  ( 0  0  1)  ( 0  0 -1)  ( 0  0  1)  ( 0  0 -1)  ( 1  0  0)  (-1  0  0)

  ( 0  1  0)  ( 0  1  0)  ( 0  1  0)  ( 0  1  0)  ( 0  0  1)  ( 0  0  1)
  ( 0  0 -1)  ( 0  0 -1)  (-1  0  0)  (-1  0  0)  ( 1  0  0)  ( 1  0  0)
  ( 1  0  0)  (-1  0  0)  ( 0  0  1)  ( 0  0 -1)  ( 0  1  0)  ( 0 -1  0)

  ( 0  0  1)  ( 0  0  1)  ( 0  0  1)  ( 0  0  1)  ( 0  0  1)  ( 0  0  1)
  ( 0  1  0)  ( 0  1  0)  ( 0 -1  0)  ( 0 -1  0)  (-1  0  0)  (-1  0  0)
  ( 1  0  0)  (-1  0  0)  ( 1  0  0)  (-1  0  0)  ( 0  1  0)  ( 0 -1  0)

  ( 0  0 -1)  ( 0  0 -1)  ( 0  0 -1)  ( 0  0 -1)  ( 0  0 -1)  ( 0  0 -1)
  ( 1  0  0)  ( 1  0  0)  ( 0  1  0)  ( 0  1  0)  ( 0 -1  0)  ( 0 -1  0)
  ( 0  1  0)  ( 0 -1  0)  ( 1  0  0)  (-1  0  0)  ( 1  0  0)  (-1  0  0)

  ( 0  0 -1)  ( 0  0 -1)  ( 0 -1  0)  ( 0 -1  0)  ( 0 -1  0)  ( 0 -1  0)
  (-1  0  0)  (-1  0  0)  ( 1  0  0)  ( 1  0  0)  ( 0  0  1)  ( 0  0  1)
  ( 0  1  0)  ( 0 -1  0)  ( 0  0  1)  ( 0  0 -1)  ( 1  0  0)  (-1  0  0)

  ( 0 -1  0)  ( 0 -1  0)  ( 0 -1  0)  ( 0 -1  0)  (-1  0  0)  (-1  0  0)
  ( 0  0 -1)  ( 0  0 -1)  (-1  0  0)  (-1  0  0)  ( 0  1  0)  ( 0  1  0)
  ( 1  0  0)  (-1  0  0)  ( 0  0  1)  ( 0  0 -1)  ( 0  0  1)  ( 0  0 -1)

  (-1  0  0)  (-1  0  0)  (-1  0  0)  (-1  0  0)  (-1  0  0)  (-1  0  0)
  ( 0  0  1)  ( 0  0  1)  ( 0  0 -1)  ( 0  0 -1)  ( 0 -1  0)  ( 0 -1  0)
  ( 0  1  0)  ( 0 -1  0)  ( 0  1  0)  ( 0 -1  0)  ( 0  0  1)  ( 0  0 -1)

216 k-points: 6 x 6 x 6 Monkhorst-Pack grid
10 k-points in the irreducible part of the Brillouin zone
       k-points in crystal coordinates                weights
   0:     0.08333333    0.08333333    0.08333333          8/216
   1:     0.25000000    0.08333333    0.08333333         24/216
   2:     0.25000000    0.25000000    0.08333333         24/216
   3:     0.25000000    0.25000000    0.25000000          8/216
   4:     0.41666667    0.08333333    0.08333333         24/216
   5:     0.41666667    0.25000000    0.08333333         48/216
   6:     0.41666667    0.25000000    0.25000000         24/216
   7:     0.41666667    0.41666667    0.08333333         24/216
   8:     0.41666667    0.41666667    0.25000000         24/216
   9:     0.41666667    0.41666667    0.41666667          8/216

Wave functions: Plane wave expansion
  Cutoff energy: 400.000 eV
  Number of coefficients (min, max): 420, 437
  Pulay-stress correction: 0.000000 eV/Ang^3 (de/decut=0.000000)
  Using FFTW library
  ScaLapack parameters: grid=1x1, blocksize=None 

Eigensolver
   Davidson(niter=1, smin=None, normalize=True) 

Densities:
  Coarse grid: 14*14*14 grid
  Fine grid: 28*28*28 grid
  Total Charge: 0.000000 

Density mixing:
  Method: sum
  Backend: pulay
  Linear mixing parameter: 0.05
  Mixing with 5 old densities
  Damping of long wave oscillations: 50 

Hamiltonian:
  XC and Coulomb potentials evaluated on a 28*28*28 grid
  Using the PBE Exchange-Correlation functional
 

Memory estimate:
  Process memory now: 121.85 MiB
  Calculator: 5.79 MiB
    Density: 1.48 MiB
      Arrays: 0.73 MiB
      Localized functions: 0.54 MiB
      Mixer: 0.21 MiB
    Hamiltonian: 0.55 MiB
      Arrays: 0.54 MiB
      XC: 0.00 MiB
      Poisson: 0.00 MiB
      vbar: 0.01 MiB
    Wavefunctions: 3.76 MiB
      Arrays psit_nG: 2.67 MiB
      Eigensolver: 0.23 MiB
      Projections: 0.22 MiB
      Projectors: 0.49 MiB
      PW-descriptor: 0.15 MiB

Total number of cores used: 1

Number of atoms: 2
Number of atomic orbitals: 18
Number of bands in calculation: 20
Bands to converge: occupied states only
Number of valence electrons: 16

... initialized

Initializing position-dependent things.

Density initialized from atomic densities
Creating initial wave functions:
  18 bands from LCAO basis set
  2 bands from random numbers

   .------.  
  /|      |  
 * |      |  
 | |  Fe  |  
 | .------.  
 |/      /   
 Fe-----*    

Positions:
   0 Fe     0.000000   -0.000000    0.000000    ( 0.0000,  0.0000,  2.2000)
   1 Fe     1.428484    1.428484    1.428484    ( 0.0000,  0.0000,  2.2000)

Unit cell:
           periodic     x           y           z      points  spacing
  1. axis:    yes    2.856967    0.000000    0.000000    14     0.2041
  2. axis:    yes    0.000000    2.856967    0.000000    14     0.2041
  3. axis:    yes    0.000000    0.000000    2.856967    14     0.2041

  Lengths:   2.856967   2.856967   2.856967
  Angles:   90.000000  90.000000  90.000000

Effective grid spacing dv^(1/3) = 0.2041

                     log10-error:    total        iterations:
           time      wfs    density  energy       fermi  poisson  magmom
iter:   1  10:13:03  +3.54   +inf   -17.470851    31              +4.2436
iter:   2  10:13:04  +0.23   +inf   -17.595023    2               +4.2370
iter:   3  10:13:05  -0.95   +inf   -17.611157    2               +4.2363
iter:   4  10:13:06  -0.99  -1.43   -17.679030    3               +4.1989
iter:   5  10:13:08  -0.59  -1.48   -17.657090    31              +4.2580
iter:   6  10:13:09  -1.99  -1.82   -17.710676    3               +4.2795
iter:   7  10:13:10  -1.47  -1.94   -17.784257    3               +4.3200
iter:   8  10:13:11  -2.03  -2.74   -17.786375    3               +4.3152
iter:   9  10:13:13  -2.98  -3.16   -17.786690    2               +4.3151
iter:  10  10:13:14  -2.95  -3.13   -17.786577    3               +4.3186
iter:  11  10:13:15  -3.34  -2.85   -17.786623    3               +4.3128
iter:  12  10:13:17  -2.94  -3.04   -17.786748    3               +4.3359
iter:  13  10:13:18  -3.31  -3.06   -17.787151    3               +4.3277
iter:  14  10:13:20  -4.83  -3.59   -17.787130    2               +4.3282
iter:  15  10:13:21  -4.47  -3.68   -17.786972    2               +4.3350
[...]
    4s(2.00)    -5.291   1.164
    4p(0.00)    -1.326   1.058
    3d(6.00)    -7.505   1.058
    *s          21.920   1.164
    *p          25.885   1.058
    *d          19.706   1.058

  Using partial waves for Fe as LCAO basis

Reference energy: -69238.909200

Spin-polarized calculation.
Magnetic moment: 4.400000

Occupation numbers:
  Fermi-Dirac: width=0.1000 eV

Convergence criteria:
  Maximum total energy change: 0.0005 eV / electron
  Maximum integral of absolute density change: 0.0001 electrons
  Maximum integral of absolute eigenstate change: 4e-08 eV^2
  Maximum number of iterations: 333

Symmetries present (total): 48

  ( 1  0  0)  ( 1  0  0)  ( 1  0  0)  ( 1  0  0)  ( 1  0  0)  ( 1  0  0)
  ( 0  1  0)  ( 0  1  0)  ( 0  0  1)  ( 0  0  1)  ( 0  0 -1)  ( 0  0 -1)
  ( 0  0  1)  ( 0  0 -1)  ( 0  1  0)  ( 0 -1  0)  ( 0  1  0)  ( 0 -1  0)

  ( 1  0  0)  ( 1  0  0)  ( 0  1  0)  ( 0  1  0)  ( 0  1  0)  ( 0  1  0)
  ( 0 -1  0)  ( 0 -1  0)  ( 1  0  0)  ( 1  0  0)  ( 0  0  1)  ( 0  0  1)
  ( 0  0  1)  ( 0  0 -1)  ( 0  0  1)  ( 0  0 -1)  ( 1  0  0)  (-1  0  0)

  ( 0  1  0)  ( 0  1  0)  ( 0  1  0)  ( 0  1  0)  ( 0  0  1)  ( 0  0  1)
  ( 0  0 -1)  ( 0  0 -1)  (-1  0  0)  (-1  0  0)  ( 1  0  0)  ( 1  0  0)
  ( 1  0  0)  (-1  0  0)  ( 0  0  1)  ( 0  0 -1)  ( 0  1  0)  ( 0 -1  0)

  ( 0  0  1)  ( 0  0  1)  ( 0  0  1)  ( 0  0  1)  ( 0  0  1)  ( 0  0  1)
  ( 0  1  0)  ( 0  1  0)  ( 0 -1  0)  ( 0 -1  0)  (-1  0  0)  (-1  0  0)
  ( 1  0  0)  (-1  0  0)  ( 1  0  0)  (-1  0  0)  ( 0  1  0)  ( 0 -1  0)

  ( 0  0 -1)  ( 0  0 -1)  ( 0  0 -1)  ( 0  0 -1)  ( 0  0 -1)  ( 0  0 -1)
  ( 1  0  0)  ( 1  0  0)  ( 0  1  0)  ( 0  1  0)  ( 0 -1  0)  ( 0 -1  0)
  ( 0  1  0)  ( 0 -1  0)  ( 1  0  0)  (-1  0  0)  ( 1  0  0)  (-1  0  0)

  ( 0  0 -1)  ( 0  0 -1)  ( 0 -1  0)  ( 0 -1  0)  ( 0 -1  0)  ( 0 -1  0)
  (-1  0  0)  (-1  0  0)  ( 1  0  0)  ( 1  0  0)  ( 0  0  1)  ( 0  0  1)
  ( 0  1  0)  ( 0 -1  0)  ( 0  0  1)  ( 0  0 -1)  ( 1  0  0)  (-1  0  0)

  ( 0 -1  0)  ( 0 -1  0)  ( 0 -1  0)  ( 0 -1  0)  (-1  0  0)  (-1  0  0)
  ( 0  0 -1)  ( 0  0 -1)  (-1  0  0)  (-1  0  0)  ( 0  1  0)  ( 0  1  0)
  ( 1  0  0)  (-1  0  0)  ( 0  0  1)  ( 0  0 -1)  ( 0  0  1)  ( 0  0 -1)

  (-1  0  0)  (-1  0  0)  (-1  0  0)  (-1  0  0)  (-1  0  0)  (-1  0  0)
  ( 0  0  1)  ( 0  0  1)  ( 0  0 -1)  ( 0  0 -1)  ( 0 -1  0)  ( 0 -1  0)
  ( 0  1  0)  ( 0 -1  0)  ( 0  1  0)  ( 0 -1  0)  ( 0  0  1)  ( 0  0 -1)

216 k-points: 6 x 6 x 6 Monkhorst-Pack grid
10 k-points in the irreducible part of the Brillouin zone
       k-points in crystal coordinates                weights
   0:     0.08333333    0.08333333    0.08333333          8/216
   1:     0.25000000    0.08333333    0.08333333         24/216
   2:     0.25000000    0.25000000    0.08333333         24/216
   3:     0.25000000    0.25000000    0.25000000          8/216
   4:     0.41666667    0.08333333    0.08333333         24/216
   5:     0.41666667    0.25000000    0.08333333         48/216
   6:     0.41666667    0.25000000    0.25000000         24/216
   7:     0.41666667    0.41666667    0.08333333         24/216
   8:     0.41666667    0.41666667    0.25000000         24/216
   9:     0.41666667    0.41666667    0.41666667          8/216

Wave functions: Plane wave expansion
  Cutoff energy: 400.000 eV
  Number of coefficients (min, max): 420, 437
  Pulay-stress correction: 0.000000 eV/Ang^3 (de/decut=0.000000)
  Using FFTW library
  ScaLapack parameters: grid=1x1, blocksize=None 

Eigensolver
   Davidson(niter=1, smin=None, normalize=True) 

Densities:
  Coarse grid: 14*14*14 grid
  Fine grid: 28*28*28 grid
  Total Charge: 0.000000 

Density mixing:
  Method: sum
  Backend: pulay
  Linear mixing parameter: 0.05
  Mixing with 5 old densities
  Damping of long wave oscillations: 50 

Hamiltonian:
  XC and Coulomb potentials evaluated on a 28*28*28 grid
  Using the PBE Exchange-Correlation functional
 

Memory estimate:
  Process memory now: 136.14 MiB
  Calculator: 5.79 MiB
    Density: 1.48 MiB
      Arrays: 0.73 MiB
      Localized functions: 0.54 MiB
      Mixer: 0.21 MiB
    Hamiltonian: 0.55 MiB
      Arrays: 0.54 MiB
      XC: 0.00 MiB
      Poisson: 0.00 MiB
      vbar: 0.01 MiB
    Wavefunctions: 3.76 MiB
      Arrays psit_nG: 2.67 MiB
      Eigensolver: 0.23 MiB
      Projections: 0.22 MiB
      Projectors: 0.49 MiB
      PW-descriptor: 0.15 MiB

Total number of cores used: 1

Number of atoms: 2
Number of atomic orbitals: 18
Number of bands in calculation: 20
Bands to converge: occupied states only
Number of valence electrons: 16

... initialized

Initializing position-dependent things.

Density initialized from atomic densities
Creating initial wave functions:
  18 bands from LCAO basis set
  2 bands from random numbers

                    
                    
                    
                    
           Fe       
                    
       Fe           
                    
                    
                    
                    

Positions:
   0 Fe    -0.000000   -0.000000   -0.000000    ( 0.0000,  0.0000,  2.2000)
   1 Fe     1.429689    1.429689    1.429689    ( 0.0000,  0.0000,  2.2000)

Unit cell:
           periodic     x           y           z      points  spacing
  1. axis:    yes    2.859378    0.000000    0.000000    14     0.2042
  2. axis:    yes    0.000000    2.859378    0.000000    14     0.2042
  3. axis:    yes    0.000000    0.000000    2.859378    14     0.2042

  Lengths:   2.859378   2.859378   2.859378
  Angles:   90.000000  90.000000  90.000000

Effective grid spacing dv^(1/3) = 0.2042

                     log10-error:    total        iterations:
           time      wfs    density  energy       fermi  poisson  magmom
iter:   1  10:46:18  +3.54   +inf   -17.465965    30              +4.2487
iter:   2  10:46:19  +0.22   +inf   -17.589770    2               +4.2420
iter:   3  10:46:19  -0.95   +inf   -17.605843    2               +4.2413
iter:   4  10:46:20  -0.99  -1.43   -17.674146    3               +4.2037
iter:   5  10:46:21  -0.59  -1.48   -17.653229    31              +4.2634
iter:   6  10:46:22  -2.00  -1.82   -17.706437    3               +4.2851
iter:   7  10:46:23  -1.48  -1.94   -17.780284    3               +4.3279
iter:   8  10:46:24  -2.04  -2.73   -17.782456    3               +4.3227
iter:   9  10:46:25  -2.98  -3.16   -17.782773    2               +4.3226
iter:  10  10:46:26  -2.96  -3.14   -17.782639    3               +4.3263
iter:  11  10:46:27  -3.29  -2.85   -17.782698    3               +4.3200
iter:  12  10:46:28  -2.65  -3.04   -17.782679    3               +4.3482
iter:  13  10:46:29  -2.93  -2.75   -17.783215    3               +4.3368
iter:  14  10:46:30  -4.93  -3.67   -17.783212    2               +4.3370
iter:  15  10:46:31  -4.89  -3.69   -17.783168    2               +4.3380
iter:  16  10:46:33  -5.95  -3.64   -17.783172    2               +4.3380
iter:  17  10:46:34  -4.65  -3.66   -17.783185    2               +4.3368
iter:  18  10:46:35  -4.92  -3.74   -17.783158    2               +4.3394
iter:  19  10:46:36  -5.34  -3.96   -17.783140    2               +4.3399
iter:  20  10:46:36  -5.81  -3.99   -17.783126    2               +4.3405
iter:  21  10:46:37  -5.92  -4.05   -17.783109    2               +4.3415
iter:  22  10:46:38  -6.59  -4.20   -17.783102    2               +4.3419
iter:  23  10:46:39  -5.66  -4.25   -17.783074    2               +4.3434
iter:  24  10:46:40  -5.95  -4.50   -17.783059    2               +4.3441
iter:  25  10:46:41  -6.66  -4.81   -17.783049    2               +4.3445
iter:  26  10:46:42  -7.16  -5.17   -17.783048    2               +4.3445
iter:  27  10:46:43  -7.64  -5.20   -17.783044    2               +4.3447

Converged after 27 iterations.

Dipole moment: (-0.000000, 0.000000, -0.000000) |e|*Ang

Total magnetic moment: (0.000000, 0.000000, 4.342466)
Local magnetic moments:
   0 Fe ( 0.000000,  0.000000,  2.251285)
   1 Fe ( 0.000000,  0.000000,  2.251138)

Energy contributions relative to reference atoms: (reference = -69238.909200)

Kinetic:        +10.264563
Potential:       -8.899439
External:        +0.000000
XC:             -19.688216
Entropy (-ST):   -0.079553
Local:           +0.579824
--------------------------
Free energy:    -17.822821
Extrapolated:   -17.783044

Spin contamination: 0.139286 electrons
Fermi level: 9.68730

Warning: Showing only first 2 kpts
                      Up                     Down
 Kpt  Band  Eigenvalues  Occupancy  Eigenvalues  Occupancy
  0     6      8.57090    0.03704     11.23480    0.00000
  0     7      8.57090    0.03704     11.31501    0.00000
  0     8      9.21650    0.03671     11.31501    0.00000
  0     9      9.70806    0.01660     11.85042    0.00000

  1     6      8.23322    0.11111     10.26873    0.00033
  1     7      8.39946    0.11111     10.82205    0.00000
  1     8      8.77676    0.11110     10.99681    0.00000
  1     9      9.00856    0.11099     11.56236    0.00000


System changes: positions, cell 

Initialize ...

Fe-setup:
  name: Iron
  id: 37abbd8d6c3c35915a9b583b742da910
  Z: 26
  valence: 8
  core: 18
  charge: 0.0
  file: /usr/share/gpaw-setups/Fe.PBE.gz
  cutoffs: 1.06(comp), 2.06(filt), 2.67(core), lmax=2
  valence states:
                energy  radius
    4s(2.00)    -5.291   1.164
    4p(0.00)    -1.326   1.058
    3d(6.00)    -7.505   1.058
    *s          21.920   1.164
    *p          25.885   1.058
    *d          19.706   1.058

  Using partial waves for Fe as LCAO basis

Reference energy: -69238.909200

Spin-polarized calculation.
Magnetic moment: 4.400000

Occupation numbers:
  Fermi-Dirac: width=0.1000 eV

Convergence criteria:
  Maximum total energy change: 0.0005 eV / electron
  Maximum integral of absolute density change: 0.0001 electrons
  Maximum integral of absolute eigenstate change: 4e-08 eV^2
  Maximum number of iterations: 333

Symmetries present (total): 48

  ( 1  0  0)  ( 1  0  0)  ( 1  0  0)  ( 1  0  0)  ( 1  0  0)  ( 1  0  0)
  ( 0  1  0)  ( 0  1  0)  ( 0  0  1)  ( 0  0  1)  ( 0  0 -1)  ( 0  0 -1)
  ( 0  0  1)  ( 0  0 -1)  ( 0  1  0)  ( 0 -1  0)  ( 0  1  0)  ( 0 -1  0)

  ( 1  0  0)  ( 1  0  0)  ( 0  1  0)  ( 0  1  0)  ( 0  1  0)  ( 0  1  0)
  ( 0 -1  0)  ( 0 -1  0)  ( 1  0  0)  ( 1  0  0)  ( 0  0  1)  ( 0  0  1)
  ( 0  0  1)  ( 0  0 -1)  ( 0  0  1)  ( 0  0 -1)  ( 1  0  0)  (-1  0  0)

  ( 0  1  0)  ( 0  1  0)  ( 0  1  0)  ( 0  1  0)  ( 0  0  1)  ( 0  0  1)
  ( 0  0 -1)  ( 0  0 -1)  (-1  0  0)  (-1  0  0)  ( 1  0  0)  ( 1  0  0)
  ( 1  0  0)  (-1  0  0)  ( 0  0  1)  ( 0  0 -1)  ( 0  1  0)  ( 0 -1  0)

  ( 0  0  1)  ( 0  0  1)  ( 0  0  1)  ( 0  0  1)  ( 0  0  1)  ( 0  0  1)
  ( 0  1  0)  ( 0  1  0)  ( 0 -1  0)  ( 0 -1  0)  (-1  0  0)  (-1  0  0)
  ( 1  0  0)  (-1  0  0)  ( 1  0  0)  (-1  0  0)  ( 0  1  0)  ( 0 -1  0)

  ( 0  0 -1)  ( 0  0 -1)  ( 0  0 -1)  ( 0  0 -1)  ( 0  0 -1)  ( 0  0 -1)
  ( 1  0  0)  ( 1  0  0)  ( 0  1  0)  ( 0  1  0)  ( 0 -1  0)  ( 0 -1  0)
  ( 0  1  0)  ( 0 -1  0)  ( 1  0  0)  (-1  0  0)  ( 1  0  0)  (-1  0  0)

  ( 0  0 -1)  ( 0  0 -1)  ( 0 -1  0)  ( 0 -1  0)  ( 0 -1  0)  ( 0 -1  0)
  (-1  0  0)  (-1  0  0)  ( 1  0  0)  ( 1  0  0)  ( 0  0  1)  ( 0  0  1)
  ( 0  1  0)  ( 0 -1  0)  ( 0  0  1)  ( 0  0 -1)  ( 1  0  0)  (-1  0  0)

  ( 0 -1  0)  ( 0 -1  0)  ( 0 -1  0)  ( 0 -1  0)  (-1  0  0)  (-1  0  0)
  ( 0  0 -1)  ( 0  0 -1)  (-1  0  0)  (-1  0  0)  ( 0  1  0)  ( 0  1  0)
  ( 1  0  0)  (-1  0  0)  ( 0  0  1)  ( 0  0 -1)  ( 0  0  1)  ( 0  0 -1)

  (-1  0  0)  (-1  0  0)  (-1  0  0)  (-1  0  0)  (-1  0  0)  (-1  0  0)
  ( 0  0  1)  ( 0  0  1)  ( 0  0 -1)  ( 0  0 -1)  ( 0 -1  0)  ( 0 -1  0)
  ( 0  1  0)  ( 0 -1  0)  ( 0  1  0)  ( 0 -1  0)  ( 0  0  1)  ( 0  0 -1)

216 k-points: 6 x 6 x 6 Monkhorst-Pack grid
10 k-points in the irreducible part of the Brillouin zone
       k-points in crystal coordinates                weights
   0:     0.08333333    0.08333333    0.08333333          8/216
   1:     0.25000000    0.08333333    0.08333333         24/216
   2:     0.25000000    0.25000000    0.08333333         24/216
   3:     0.25000000    0.25000000    0.25000000          8/216
   4:     0.41666667    0.08333333    0.08333333         24/216
   5:     0.41666667    0.25000000    0.08333333         48/216
   6:     0.41666667    0.25000000    0.25000000         24/216
   7:     0.41666667    0.41666667    0.08333333         24/216
   8:     0.41666667    0.41666667    0.25000000         24/216
   9:     0.41666667    0.41666667    0.41666667          8/216

Wave functions: Plane wave expansion
  Cutoff energy: 400.000 eV
  Number of coefficients (min, max): 420, 437
  Pulay-stress correction: 0.000000 eV/Ang^3 (de/decut=0.000000)
  Using FFTW library
  ScaLapack parameters: grid=1x1, blocksize=None 

Eigensolver
   Davidson(niter=1, smin=None, normalize=True) 

Densities:
  Coarse grid: 14*14*14 grid
  Fine grid: 28*28*28 grid
  Total Charge: 0.000000 

Density mixing:
  Method: sum
  Backend: pulay
  Linear mixing parameter: 0.05
  Mixing with 5 old densities
  Damping of long wave oscillations: 50 

Hamiltonian:
  XC and Coulomb potentials evaluated on a 28*28*28 grid
  Using the PBE Exchange-Correlation functional
 

Memory estimate:
  Process memory now: 136.14 MiB
  Calculator: 5.79 MiB
    Density: 1.48 MiB
      Arrays: 0.73 MiB
      Localized functions: 0.54 MiB
      Mixer: 0.21 MiB
    Hamiltonian: 0.55 MiB
      Arrays: 0.54 MiB
      XC: 0.00 MiB
      Poisson: 0.00 MiB
      vbar: 0.01 MiB
    Wavefunctions: 3.76 MiB
      Arrays psit_nG: 2.67 MiB
      Eigensolver: 0.23 MiB
      Projections: 0.22 MiB
      Projectors: 0.49 MiB
      PW-descriptor: 0.15 MiB

Total number of cores used: 1

Number of atoms: 2
Number of atomic orbitals: 18
Number of bands in calculation: 20
Bands to converge: occupied states only
Number of valence electrons: 16

... initialized

Initializing position-dependent things.

Density initialized from atomic densities
Creating initial wave functions:
  18 bands from LCAO basis set
  2 bands from random numbers

                    
                    
                    
                    
           Fe       
                    
       Fe           
                    
                    
                    
                    

Positions:
   0 Fe    -0.000000   -0.000000   -0.000000    ( 0.0000,  0.0000,  2.2000)
   1 Fe     1.429689    1.429689    1.429689    ( 0.0000,  0.0000,  2.2000)

Unit cell:
           periodic     x           y           z      points  spacing
  1. axis:    yes    2.859378    0.000000    0.000000    14     0.2042
  2. axis:    yes    0.000000    2.859378    0.000000    14     0.2042
  3. axis:    yes    0.000000    0.000000    2.859378    14     0.2042

  Lengths:   2.859378   2.859378   2.859378
  Angles:   90.000000  90.000000  90.000000

Effective grid spacing dv^(1/3) = 0.2042

                     log10-error:    total        iterations:
           time      wfs    density  energy       fermi  poisson  magmom
iter:   1  10:46:47  +3.55   +inf   -17.468144    31              +4.2501
iter:   2  10:46:48  +0.23   +inf   -17.594164    2               +4.2424
iter:   3  10:46:49  -0.94   +inf   -17.610528    2               +4.2418
iter:   4  10:46:49  -0.99  -1.43   -17.678875    3               +4.2041
iter:   5  10:46:51  -0.59  -1.48   -17.657926    32              +4.2637
iter:   6  10:46:52  -1.99  -1.82   -17.711139    3               +4.2856
iter:   7  10:46:53  -1.48  -1.94   -17.785335    3               +4.3285
iter:   8  10:46:53  -2.04  -2.74   -17.787424    3               +4.3236
iter:   9  10:46:55  -3.00  -3.16   -17.787730    2               +4.3234
iter:  10  10:46:55  -2.97  -3.14   -17.787603    3               +4.3271
iter:  11  10:46:57  -3.18  -2.85   -17.787561    3               +4.3206
iter:  12  10:46:57  -3.25  -2.95   -17.787826    3               +4.3200
iter:  13  10:46:59  -3.32  -2.61   -17.788214    3               +4.3322
iter:  14  10:47:00  -3.40  -2.79   -17.788130    3               +4.3394
iter:  15  10:47:01  -4.48  -3.71   -17.788152    2               +4.3387
iter:  16  10:47:02  -4.21  -3.49   -17.788040    2               +4.3434
iter:  17  10:47:03  -5.27  -4.12   -17.787978    2               +4.3452
iter:  18  10:47:04  -5.43  -4.11   -17.787966    2               +4.3456
iter:  19  10:47:05  -5.52  -4.10   -17.787985    2               +4.3459
Timing:                              incl.     excl.
-----------------------------------------------------------
Forces:                              1.170     1.170   0.0% |
Hamiltonian:                        14.049     0.013   0.0% |
 Atomic:                            12.230     0.301   0.0% |
  XC Correction:                    11.929    11.929   0.5% |
 Calculate atomic Hamiltonians:      0.147     0.147   0.0% |
 Communicate:                        0.000     0.000   0.0% |
 Initialize Hamiltonian:             0.002     0.002   0.0% |
 Poisson:                            0.006     0.006   0.0% |
 XC 3D grid:                         1.650     1.650   0.1% |
LCAO initialization:                32.688     2.069   0.1% |
 LCAO eigensolver:                  18.375     0.022   0.0% |
  Calculate projections:             0.028     0.028   0.0% |
  DenseAtomicCorrection:             0.084     0.084   0.0% |
  Distribute overlap matrix:         0.011     0.011   0.0% |
  Orbital Layouts:                   0.122     0.122   0.0% |
  Potential matrix:                 16.927    16.927   0.7% |
  Sum over cells:                    1.181     1.181   0.0% |
 LCAO to grid:                       7.135     7.135   0.3% |
 Set positions (LCAO WFS):           5.109     0.010   0.0% |
  Basic WFS set positions:           0.081     0.081   0.0% |
  Basis functions set positions:     0.001     0.001   0.0% |
  TCI: Calculate S, T, P:            5.017     5.017   0.2% |
PWDescriptor:                        0.055     0.055   0.0% |
SCF-cycle:                        2319.237     8.368   0.3% |
 Davidson:                        1831.271   229.026   9.5% |---|
  Subspace diag:                   176.885     2.128   0.1% |
   calc_h_matrix:                  113.069   113.069   4.7% |-|
   diagonalize:                     35.004    35.004   1.4% ||
   rotate_psi:                      26.685    26.685   1.1% |
  calc. matrices:                 1323.366  1323.366  54.7% |---------------------|
  diagonalize:                      74.934    74.934   3.1% ||
  rotate_psi:                       27.061    27.061   1.1% |
 Density:                          103.545     0.020   0.0% |
  Atomic density matrices:           3.520     3.520   0.1% |
  Mix:                              12.836    12.836   0.5% |
  Multipole moments:                 0.131     0.131   0.0% |
  Pseudo density:                   87.038    68.447   2.8% ||
   Symmetrize density:              18.591    18.591   0.8% |
 Hamiltonian:                      347.886     0.361   0.0% |
  Atomic:                          295.201     9.373   0.4% |
   XC Correction:                  285.829   285.829  11.8% |----|
  Calculate atomic Hamiltonians:     4.195     4.195   0.2% |
  Communicate:                       0.007     0.007   0.0% |
  Poisson:                           0.187     0.187   0.0% |
  XC 3D grid:                       47.935    47.935   2.0% ||
 Orthonormalize:                    28.167     0.088   0.0% |
  calc_s_matrix:                     0.411     0.411   0.0% |
  inverse-cholesky:                 25.928    25.928   1.1% |
  projections:                       1.201     1.201   0.0% |
  rotate_psi_s:                      0.539     0.539   0.0% |
Set symmetry:                        0.809     0.809   0.0% |
Stress:                             16.065     0.000   0.0% |
 Stress tensor:                     16.064    16.064   0.7% |
Other:                              33.711    33.711   1.4% ||
-----------------------------------------------------------
Total:                                      2417.784 100.0%

Date: Thu Oct 25 10:47:06 2018
