
  ___ ___ ___ _ _ _  
 |   |   |_  | | | | 
 | | | | | . | | | | 
 |__ |  _|___|_____|  1.4.0
 |___|_|             

User:   rasmus@AsusN550
Date:   Mon Oct 29 16:07:36 2018
Arch:   x86_64
Pid:    14117
Python: 3.6.3
gpaw:   /home/rasmus/anaconda3/lib/python3.6/site-packages/gpaw
_gpaw:  /home/rasmus/anaconda3/lib/python3.6/site-packages/
        _gpaw.cpython-36m-x86_64-linux-gnu.so
ase:    /home/rasmus/.local/lib/python3.6/site-packages/ase (version 3.16.2)
numpy:  /home/rasmus/.local/lib/python3.6/site-packages/numpy (version 1.15.1)
scipy:  /home/rasmus/.local/lib/python3.6/site-packages/scipy (version 1.1.0)
units:  Angstrom and eV
cores:  1

Input parameters:
  kpts: [5 5 5]
  mode: {ecut: 500.0,
         name: pw}
  nbands: -5
  occupations: {name: fermi-dirac,
                width: 0.1}
  spinpol: True
  xc: PBE

System changes: positions, numbers, cell, pbc, initial_charges, initial_magmoms 

Initialize ...

Fe-setup:
  name: Iron
  id: 37abbd8d6c3c35915a9b583b742da910
  Z: 26
  valence: 8
  core: 18
  charge: 0.0
  file: /usr/share/gpaw-setups/Fe.PBE.gz
  cutoffs: 1.06(comp), 2.06(filt), 2.67(core), lmax=2
  valence states:
                energy  radius
    4s(2.00)    -5.291   1.164
    4p(0.00)    -1.326   1.058
    3d(6.00)    -7.505   1.058
    *s          21.920   1.164
    *p          25.885   1.058
    *d          19.706   1.058

  Using partial waves for Fe as LCAO basis

Cu-setup:
  name: Copper
  id: f1c4d45d90492f1bbfdcb091e8418fdf
  Z: 29
  valence: 11
  core: 18
  charge: 0.0
  file: /usr/share/gpaw-setups/Cu.PBE.gz
  cutoffs: 1.06(comp), 2.06(filt), 2.43(core), lmax=2
  valence states:
                energy  radius
    4s(1.00)    -4.609   1.164
    4p(0.00)    -0.698   1.164
    3d(10.00)    -5.039   1.058
    *s          22.603   1.164
    *p          26.513   1.164
    *d          22.172   1.058

  Using partial waves for Cu as LCAO basis

Reference energy: -79640.906441

Spin-polarized calculation.
Magnetic moment: 4.000000

Occupation numbers:
  Fermi-Dirac: width=0.1000 eV

Convergence criteria:
  Maximum total energy change: 0.0005 eV / electron
  Maximum integral of absolute density change: 0.0001 electrons
  Maximum integral of absolute eigenstate change: 4e-08 eV^2
  Maximum number of iterations: 333

Symmetries present (total): 6

  ( 1  0  0)  ( 1  0  0)  ( 0  1  0)  ( 0  1  0)  ( 0  0  1)  ( 0  0  1)
  ( 0  1  0)  ( 0  0  1)  ( 1  0  0)  ( 0  0  1)  ( 1  0  0)  ( 0  1  0)
  ( 0  0  1)  ( 0  1  0)  ( 0  0  1)  ( 1  0  0)  ( 0  1  0)  ( 1  0  0)

125 k-points: 5 x 5 x 5 Monkhorst-Pack grid
19 k-points in the irreducible part of the Brillouin zone
       k-points in crystal coordinates                weights
   0:     0.00000000    0.00000000    0.00000000          1/125
   1:     0.20000000    0.00000000   -0.20000000          6/125
   2:     0.20000000    0.00000000    0.00000000          6/125
   3:     0.20000000    0.20000000   -0.20000000          6/125
   4:     0.20000000    0.20000000    0.00000000          6/125
   5:     0.20000000    0.20000000    0.20000000          2/125
   6:     0.40000000   -0.20000000   -0.20000000          6/125
   7:     0.40000000    0.00000000   -0.40000000          6/125
   8:     0.40000000    0.00000000   -0.20000000         12/125
   9:     0.40000000    0.00000000    0.00000000          6/125
          ...
  18:     0.40000000    0.40000000    0.40000000          2/125

Wave functions: Plane wave expansion
  Cutoff energy: 500.000 eV
  Number of coefficients (min, max): 286, 321
  Pulay-stress correction: 0.000000 eV/Ang^3 (de/decut=0.000000)
  Using FFTW library
  ScaLapack parameters: grid=1x1, blocksize=None 

Eigensolver
   Davidson(niter=1, smin=None, normalize=True) 

Densities:
  Coarse grid: 10*10*10 grid
  Fine grid: 20*20*20 grid
  Total Charge: 0.000000 

Density mixing:
  Method: sum
  Backend: pulay
  Linear mixing parameter: 0.05
  Mixing with 5 old densities
  Damping of long wave oscillations: 50 

Hamiltonian:
  XC and Coulomb potentials evaluated on a 20*20*20 grid
  Using the PBE Exchange-Correlation functional
 

Memory estimate:
  Process memory now: 71.97 MiB
  Calculator: 5.19 MiB
    Density: 0.53 MiB
      Arrays: 0.27 MiB
      Localized functions: 0.18 MiB
      Mixer: 0.08 MiB
    Hamiltonian: 0.20 MiB
      Arrays: 0.20 MiB
      XC: 0.00 MiB
      Poisson: 0.00 MiB
      vbar: 0.00 MiB
    Wavefunctions: 4.46 MiB
      Arrays psit_nG: 2.98 MiB
      Eigensolver: 0.14 MiB
      Projections: 0.33 MiB
      Projectors: 0.91 MiB
      PW-descriptor: 0.10 MiB

Total number of cores used: 1

Number of atoms: 2
Number of atomic orbitals: 18
Number of bands in calculation: 16
Bands to converge: occupied states only
Number of valence electrons: 19

... initialized

Initializing position-dependent things.

Density initialized from atomic densities
Timing:                              incl.     excl.
-----------------------------------------------------------
Hamiltonian:                         0.408     0.001   0.0% |
 Atomic:                             0.385     0.026   1.6% ||
  XC Correction:                     0.359     0.359  21.7% |--------|
 Calculate atomic Hamiltonians:      0.001     0.001   0.1% |
 Communicate:                        0.000     0.000   0.0% |
 Initialize Hamiltonian:             0.000     0.000   0.0% |
 Poisson:                            0.000     0.000   0.0% |
 XC 3D grid:                         0.021     0.021   1.2% |
LCAO initialization:                 0.278     0.228  13.7% |----|
 Set positions (LCAO WFS):           0.050     0.000   0.0% |
  Basic WFS set positions:           0.000     0.000   0.0% |
  Basis functions set positions:     0.000     0.000   0.0% |
  TCI: Calculate S, T, P:            0.050     0.050   3.0% ||
PWDescriptor:                        0.005     0.005   0.3% |
Set symmetry:                        0.009     0.009   0.6% |
Other:                               0.959     0.959  57.8% |----------------------|
-----------------------------------------------------------
Total:                                         1.659 100.0%

Date: Mon Oct 29 16:07:37 2018
