
  ___ ___ ___ _ _ _  
 |   |   |_  | | | | 
 | | | | | . | | | | 
 |__ |  _|___|_____|  1.3.1b1
 |___|_|             

User:   rasmusat@c4-5.local
Date:   Thu Nov 15 11:05:24 2018
Arch:   x86_64
Pid:    49974
Python: 2.7.12
gpaw:   /home/davidkl/.local/lib/python2.7/site-packages/gpaw
_gpaw:  /home/davidkl/.local/bin/gpaw-python
ase:    /home/davidkl/.local/lib/python2.7/site-packages/ase (version 3.16.2)
numpy:  /global/hds/software/cpu/eb3/Python/2.7.12-intel-2016b/lib/python2.7/site-packages/numpy-1.11.1-py2.7-linux-x86_64.egg/numpy (version 1.11.1)
scipy:  /global/hds/software/cpu/eb3/Python/2.7.12-intel-2016b/lib/python2.7/site-packages/scipy (version 0.17.1)
units:  Angstrom and eV
cores:  32

Input parameters:
  kpts: [2 2 2]
  mode: {ecut: 500.0,
         name: pw}
  nbands: -80
  occupations: {name: fermi-dirac,
                width: 0.05}
  spinpol: True
  xc: PBE

System changes: positions, numbers, cell, pbc, initial_charges, initial_magmoms 

Initialize ...

Fe-setup:
  name: Iron
  id: 37abbd8d6c3c35915a9b583b742da910
  Z: 26
  valence: 8
  core: 18
  charge: 0.0
  file: /home/davidkl/gpaw-setups-0.9.20000/Fe.PBE.gz
  cutoffs: 1.06(comp), 2.06(filt), 2.67(core), lmax=2
  valence states:
                energy  radius
    4s(2.00)    -5.291   1.164
    4p(0.00)    -1.326   1.058
    3d(6.00)    -7.505   1.058
    *s          21.920   1.164
    *p          25.885   1.058
    *d          19.706   1.058

  Using partial waves for Fe as LCAO basis

Reference energy: -2215645.094396

Spin-polarized calculation.
Magnetic moment:  140.800000

Occupation numbers:
  Fermi-Dirac: width=0.0500 eV

Convergence criteria:
  Maximum total energy change: 0.0005 eV / electron
  Maximum integral of absolute density change: 0.0001 electrons
  Maximum integral of absolute eigenstate change: 4e-08 eV^2
  Maximum number of iterations: 333

Symmetries present (total): 48

  ( 1  1  1)  ( 1  1  1)  ( 1  1  1)  ( 1  1  1)  ( 1  1  1)  ( 1  1  1)
  ( 0  0 -1)  ( 0  0 -1)  ( 0 -1  0)  ( 0 -1  0)  (-1  0  0)  (-1  0  0)
  ( 0 -1  0)  (-1  0  0)  ( 0  0 -1)  (-1  0  0)  ( 0  0 -1)  ( 0 -1  0)

  ( 1  0  0)  ( 1  0  0)  ( 1  0  0)  ( 1  0  0)  ( 1  0  0)  ( 1  0  0)
  ( 0  1  0)  ( 0  1  0)  ( 0  0  1)  ( 0  0  1)  (-1 -1 -1)  (-1 -1 -1)
  ( 0  0  1)  (-1 -1 -1)  ( 0  1  0)  (-1 -1 -1)  ( 0  1  0)  ( 0  0  1)

  ( 0  1  0)  ( 0  1  0)  ( 0  1  0)  ( 0  1  0)  ( 0  1  0)  ( 0  1  0)
  ( 1  0  0)  ( 1  0  0)  ( 0  0  1)  ( 0  0  1)  (-1 -1 -1)  (-1 -1 -1)
  ( 0  0  1)  (-1 -1 -1)  ( 1  0  0)  (-1 -1 -1)  ( 1  0  0)  ( 0  0  1)

  ( 0  0  1)  ( 0  0  1)  ( 0  0  1)  ( 0  0  1)  ( 0  0  1)  ( 0  0  1)
  ( 1  0  0)  ( 1  0  0)  ( 0  1  0)  ( 0  1  0)  (-1 -1 -1)  (-1 -1 -1)
  ( 0  1  0)  (-1 -1 -1)  ( 1  0  0)  (-1 -1 -1)  ( 1  0  0)  ( 0  1  0)

  ( 0  0 -1)  ( 0  0 -1)  ( 0  0 -1)  ( 0  0 -1)  ( 0  0 -1)  ( 0  0 -1)
  ( 1  1  1)  ( 1  1  1)  ( 0 -1  0)  ( 0 -1  0)  (-1  0  0)  (-1  0  0)
  ( 0 -1  0)  (-1  0  0)  ( 1  1  1)  (-1  0  0)  ( 1  1  1)  ( 0 -1  0)

  ( 0 -1  0)  ( 0 -1  0)  ( 0 -1  0)  ( 0 -1  0)  ( 0 -1  0)  ( 0 -1  0)
  ( 1  1  1)  ( 1  1  1)  ( 0  0 -1)  ( 0  0 -1)  (-1  0  0)  (-1  0  0)
  ( 0  0 -1)  (-1  0  0)  ( 1  1  1)  (-1  0  0)  ( 1  1  1)  ( 0  0 -1)

  (-1  0  0)  (-1  0  0)  (-1  0  0)  (-1  0  0)  (-1  0  0)  (-1  0  0)
  ( 1  1  1)  ( 1  1  1)  ( 0  0 -1)  ( 0  0 -1)  ( 0 -1  0)  ( 0 -1  0)
  ( 0  0 -1)  ( 0 -1  0)  ( 1  1  1)  ( 0 -1  0)  ( 1  1  1)  ( 0  0 -1)

  (-1 -1 -1)  (-1 -1 -1)  (-1 -1 -1)  (-1 -1 -1)  (-1 -1 -1)  (-1 -1 -1)
  ( 1  0  0)  ( 1  0  0)  ( 0  1  0)  ( 0  1  0)  ( 0  0  1)  ( 0  0  1)
  ( 0  1  0)  ( 0  0  1)  ( 1  0  0)  ( 0  0  1)  ( 1  0  0)  ( 0  1  0)

8 k-points: 2 x 2 x 2 Monkhorst-Pack grid
2 k-points in the irreducible part of the Brillouin zone
       k-points in crystal coordinates                weights
   0:     0.25000000    0.25000000   -0.25000000          6/8
   1:     0.25000000    0.25000000    0.25000000          2/8

Wave functions: Plane wave expansion
  Cutoff energy: 500.000 eV
  Number of coefficients (min, max): 18981, 19116
  Pulay-stress correction: 0.000000 eV/Ang^3 (de/decut=0.000000)
  Using FFTW library
  Eigensolver: None  MatrixOperator buffer_size: default value or 
                              see value of nblock in input file
Diagonalizer layout: Serial LAPACKOrthonormalizer layout: Serial LAPACK 

Davidson(niter=1, smin=None, normalize=True) 

Densities:
  Coarse grid: 42*42*42 grid
  Fine grid: 84*84*84 grid
  Total Charge: 0.000000 

Density mixing:
  Method: sum
  Backend: pulay
  Linear mixing parameter: 0.05
  Mixing with 5 old densities
  Damping of long wave oscillations: 50 

Hamiltonian:
  XC and Coulomb potentials evaluated on a 84*84*84 grid
  Using the PBE Exchange-Correlation functional
 

Memory estimate:
  Process memory now: 106.02 MiB
  Calculator: 131.99 MiB
    Density: 36.60 MiB
      Arrays: 19.78 MiB
      Localized functions: 11.16 MiB
      Mixer: 5.65 MiB
    Hamiltonian: 14.92 MiB
      Arrays: 14.70 MiB
      XC: 0.00 MiB
      Poisson: 0.00 MiB
      vbar: 0.23 MiB
    Wavefunctions: 80.47 MiB
      Arrays psit_nG: 14.88 MiB
      Eigensolver: 26.87 MiB
      Projections: 0.90 MiB
      Projectors: 2.17 MiB
      Overlap op: 32.61 MiB
      PW-descriptor: 3.04 MiB

Total number of cores used: 32
Parallelization over k-points and spin: 4
Parallelization over states: 8

Number of atoms: 64
Number of atomic orbitals: 576
Adjusting number of bands by +2 to match parallelization
Number of bands in calculation: 408
Bands to converge: occupied states only
Number of valence electrons: 512

... initialized

Initializing position-dependent things.

Density initialized from atomic densities
Creating initial wave functions:
  408 bands from LCAO basis set

                                                       
                                                       
                                                       
                                                       
                                                       
                                                       
                                                       
                                                       
                                                       
                    Fe                                 
                 Fe     Fe                             
               Fe     FFe    Fe                        
            Fe  Fe FFe Fe FFe Fe Fe                    
                 Fe  Fe Fe  Fe Fe                      
               Fe     Fe Fe  Fe     Fe                 
                   Fe  Fe Fe  Fe Fe                    
                    Fe Fe  Fe Fe  Fe                   
                 Fe     Fe  Fe Fe     Fe               
                      Fe Fe  Fe Fe  Fe                 
                    Fe Fe FFe Fe FFe Fe  Fe            
                        Fe    FFe     Fe               
                             Fe     Fe                 
                                 Fe                    
                                                       
                                                       
                                                       
                                                       
                                                       
                                                       
                                                       
                                                       
                                                       

Positions:
   0 Fe     0.000000    0.000000    0.000000
   1 Fe     1.430000    1.430000   -1.430000
   2 Fe     2.860000    2.860000   -2.860000
   3 Fe     4.290000    4.290000   -4.290000
   4 Fe     1.430000   -1.430000    1.430000
   5 Fe     2.860000    0.000000    0.000000
   6 Fe     4.290000    1.430000   -1.430000
   7 Fe     5.720000    2.860000   -2.860000
   8 Fe     2.860000   -2.860000    2.860000
   9 Fe     4.290000   -1.430000    1.430000
  10 Fe     5.720000    0.000000    0.000000
  11 Fe     7.150000    1.430000   -1.430000
  12 Fe     4.290000   -4.290000    4.290000
  13 Fe     5.720000   -2.860000    2.860000
  14 Fe     7.150000   -1.430000    1.430000
  15 Fe     8.580000    0.000000    0.000000
  16 Fe    -1.430000    1.430000    1.430000
  17 Fe     0.000000    2.860000    0.000000
  18 Fe     1.430000    4.290000   -1.430000
  19 Fe     2.860000    5.720000   -2.860000
  20 Fe     0.000000    0.000000    2.860000
  21 Fe     1.430000    1.430000    1.430000
  22 Fe     2.860000    2.860000    0.000000
  23 Fe     4.290000    4.290000   -1.430000
  24 Fe     1.430000   -1.430000    4.290000
  25 Fe     2.860000    0.000000    2.860000
  26 Fe     4.290000    1.430000    1.430000
  27 Fe     5.720000    2.860000    0.000000
  28 Fe     2.860000   -2.860000    5.720000
  29 Fe     4.290000   -1.430000    4.290000
  30 Fe     5.720000   -0.000000    2.860000
  31 Fe     7.150000    1.430000    1.430000
  32 Fe    -2.860000    2.860000    2.860000
  33 Fe    -1.430000    4.290000    1.430000
  34 Fe     0.000000    5.720000    0.000000
  35 Fe     1.430000    7.150000   -1.430000
  36 Fe    -1.430000    1.430000    4.290000
  37 Fe     0.000000    2.860000    2.860000
  38 Fe     1.430000    4.290000    1.430000
  39 Fe     2.860000    5.720000    0.000000
  40 Fe     0.000000    0.000000    5.720000
  41 Fe     1.430000    1.430000    4.290000
  42 Fe     2.860000    2.860000    2.860000
  43 Fe     4.290000    4.290000    1.430000
  44 Fe     1.430000   -1.430000    7.150000
  45 Fe     2.860000   -0.000000    5.720000
  46 Fe     4.290000    1.430000    4.290000
  47 Fe     5.720000    2.860000    2.860000
  48 Fe    -4.290000    4.290000    4.290000
  49 Fe    -2.860000    5.720000    2.860000
  50 Fe    -1.430000    7.150000    1.430000
  51 Fe     0.000000    8.580000    0.000000
  52 Fe    -2.860000    2.860000    5.720000
  53 Fe    -1.430000    4.290000    4.290000
  54 Fe    -0.000000    5.720000    2.860000
  55 Fe     1.430000    7.150000    1.430000
  56 Fe    -1.430000    1.430000    7.150000
  57 Fe    -0.000000    2.860000    5.720000
  58 Fe     1.430000    4.290000    4.290000
  59 Fe     2.860000    5.720000    2.860000
  60 Fe     0.000000    0.000000    8.580000
  61 Fe     1.430000    1.430000    7.150000
  62 Fe     2.860000    2.860000    5.720000
  63 Fe     4.290000    4.290000    4.290000

Unit cell:
           periodic     x           y           z      points  spacing
  1. axis:    yes   -5.720000    5.720000    5.720000    42     0.1926
  2. axis:    yes    5.720000   -5.720000    5.720000    42     0.1926
  3. axis:    yes    5.720000    5.720000   -5.720000    42     0.1926

  Lengths:   9.907331   9.907331   9.907331
  Angles:  109.471221 109.471221 109.471221

Effective grid spacing dv^(1/3) = 0.2162

                     log10-error:    total        iterations:
           time      wfs    density  energy       fermi  poisson  magmom
iter:   1  11:06:39  +1.21   +inf  -564.804333    3               +135.9582
iter:   2  11:07:08  +0.39   +inf  -569.423900    2               +135.9341
iter:   3  11:07:37  -0.57   +inf  -570.485571    2               +135.9286
iter:   4  11:08:11  -0.54  -1.45  -572.903897    4               +135.7575
iter:   5  11:08:45  -0.54  -1.50  -572.222816    33              +136.0914
iter:   6  11:09:19  -0.49  -1.70  -575.854835    36              +139.4150
iter:   7  11:09:53  -0.15  -1.76  -576.167146    5               +136.8763
iter:   8  11:10:26  -0.93  -2.01  -576.665941    4               +138.4354
iter:   9  11:11:00  -1.89  -2.24  -577.038744    4               +138.5917
iter:  10  11:11:34  -2.06  -2.28  -576.979915    4               +138.2926
iter:  11  11:12:07  -2.21  -2.46  -576.961730    4               +137.8636
iter:  12  11:12:41  -2.98  -3.25  -576.969593    3               +137.7703
iter:  13  11:13:15  -2.84  -3.18  -576.967234    3               +137.8137
iter:  14  11:13:48  -3.82  -4.11  -576.967926    3               +137.8263
iter:  15  11:14:22  -3.80  -4.30  -576.968390    2               +137.8251
iter:  16  11:14:56  -4.35  -4.30  -576.968596    2               +137.8211
iter:  17  11:15:29  -4.44  -4.57  -576.968663    2               +137.8223
iter:  18  11:16:03  -4.80  -4.62  -576.968646    2               +137.8252
iter:  19  11:16:37  -4.44  -4.39  -576.969196    3               +137.8123
iter:  20  11:17:10  -5.08  -3.97  -576.969122    2               +137.8157
iter:  21  11:17:44  -5.43  -4.14  -576.969079    2               +137.8172
iter:  22  11:18:18  -4.38  -4.20  -576.968597    3               +137.8343
iter:  23  11:18:51  -4.99  -4.00  -576.968716    3               +137.8287
iter:  24  11:19:25  -6.13  -4.34  -576.968734    2               +137.8283
iter:  25  11:19:59  -5.61  -4.38  -576.968830    2               +137.8249
iter:  26  11:20:32  -5.53  -4.96  -576.968734    2               +137.8287
iter:  27  11:21:06  -5.60  -4.36  -576.968842    2               +137.8245
iter:  28  11:21:40  -6.85  -5.10  -576.968854    2               +137.8241
iter:  29  11:22:14  -6.75  -5.49  -576.968858    2               +137.8240
iter:  30  11:22:47  -7.32  -5.67  -576.968860    2               +137.8239
iter:  31  11:23:21  -7.19  -5.77  -576.968860    1               +137.8239
iter:  32  11:23:55  -7.68  -5.84  -576.968853    2               +137.8241

Converged after 32 iterations.

Dipole moment: (0.000000, 0.000000, -0.000000) |e|*Ang

Total magnetic moment: 137.824136
Local magnetic moments:
   0 Fe 2.245596
   1 Fe 2.245602
   2 Fe 2.245596
   3 Fe 2.245602
   4 Fe 2.245602
   5 Fe 2.245605
   6 Fe 2.245602
   7 Fe 2.245605
   8 Fe 2.245596
   9 Fe 2.245602
  10 Fe 2.245596
  11 Fe 2.245602
  12 Fe 2.245602
  13 Fe 2.245605
  14 Fe 2.245602
  15 Fe 2.245605
  16 Fe 2.245602
  17 Fe 2.245605
  18 Fe 2.245602
  19 Fe 2.245605
  20 Fe 2.245605
  21 Fe 2.245602
  22 Fe 2.245605
  23 Fe 2.245602
  24 Fe 2.245602
  25 Fe 2.245605
  26 Fe 2.245602
  27 Fe 2.245605
  28 Fe 2.245605
  29 Fe 2.245602
  30 Fe 2.245605
  31 Fe 2.245602
  32 Fe 2.245596
  33 Fe 2.245602
  34 Fe 2.245596
  35 Fe 2.245602
  36 Fe 2.245602
  37 Fe 2.245605
  38 Fe 2.245602
  39 Fe 2.245605
  40 Fe 2.245596
  41 Fe 2.245602
  42 Fe 2.245596
  43 Fe 2.245602
  44 Fe 2.245602
  45 Fe 2.245605
  46 Fe 2.245602
  47 Fe 2.245605
  48 Fe 2.245602
  49 Fe 2.245605
  50 Fe 2.245602
  51 Fe 2.245605
  52 Fe 2.245605
  53 Fe 2.245602
  54 Fe 2.245605
  55 Fe 2.245602
  56 Fe 2.245602
  57 Fe 2.245605
  58 Fe 2.245602
  59 Fe 2.245605
  60 Fe 2.245605
  61 Fe 2.245602
  62 Fe 2.245605
  63 Fe 2.245602

Energy contributions relative to reference atoms: (reference = -2215645.094396)

Kinetic:       +378.242790
Potential:     -322.440624
External:        +0.000000
XC:            -638.781801
Entropy (-ST):   -0.381530
Local:           +6.201547
--------------------------
Free energy:   -577.159618
Extrapolated:  -576.968853

Spin contamination: 4.856988 electrons
Fermi level: 9.71389

Showing all kpts
                      Up                     Down
 Kpt  Band  Eigenvalues  Occupancy  Eigenvalues  Occupancy
  0   254      8.76373    0.75000     11.19435    0.00000
  0   255      8.77582    0.75000     11.19436    0.00000
  0   256      8.77582    0.75000     11.19561    0.00000
  0   257      8.77660    0.75000     11.22726    0.00000

  1   254      8.77339    0.25000     11.20904    0.00000
  1   255      8.77369    0.25000     11.20904    0.00000
  1   256      8.77369    0.25000     11.26905    0.00000
  1   257      8.77369    0.25000     11.26905    0.00000



Forces in eV/Ang:
  0 Fe    0.00000    0.00000    0.00000
  1 Fe    0.00000    0.00000   -0.00000
  2 Fe   -0.00000   -0.00000   -0.00000
  3 Fe   -0.00000   -0.00000    0.00000
  4 Fe    0.00000   -0.00000    0.00000
  5 Fe    0.00000    0.00000    0.00000
  6 Fe    0.00000    0.00000   -0.00000
  7 Fe    0.00000   -0.00000    0.00000
  8 Fe    0.00000    0.00000    0.00000
  9 Fe    0.00000   -0.00000    0.00000
 10 Fe    0.00000    0.00000    0.00000
 11 Fe   -0.00000    0.00000   -0.00000
 12 Fe   -0.00000    0.00000   -0.00000
 13 Fe    0.00000    0.00000   -0.00000
 14 Fe   -0.00000   -0.00000    0.00000
 15 Fe   -0.00000    0.00000    0.00000
 16 Fe   -0.00000    0.00000    0.00000
 17 Fe    0.00000    0.00000   -0.00000
 18 Fe    0.00000    0.00000   -0.00000
 19 Fe   -0.00000   -0.00000    0.00000
 20 Fe    0.00000    0.00000    0.00000
 21 Fe    0.00000    0.00000    0.00000
 22 Fe    0.00000    0.00000    0.00000
 23 Fe   -0.00000   -0.00000    0.00000
 24 Fe    0.00000   -0.00000    0.00000
 25 Fe    0.00000    0.00000    0.00000
 26 Fe    0.00000    0.00000    0.00000
 27 Fe   -0.00000    0.00000   -0.00000
 28 Fe   -0.00000    0.00000   -0.00000
 29 Fe   -0.00000    0.00000   -0.00000
 30 Fe   -0.00000    0.00000   -0.00000
 31 Fe   -0.00000    0.00000    0.00000
 32 Fe   -0.00000    0.00000    0.00000
 33 Fe   -0.00000    0.00000    0.00000
 34 Fe    0.00000    0.00000    0.00000
 35 Fe    0.00000   -0.00000   -0.00000
 36 Fe   -0.00000    0.00000    0.00000
 37 Fe    0.00000    0.00000    0.00000
 38 Fe    0.00000    0.00000    0.00000
 39 Fe   -0.00000   -0.00000    0.00000
 40 Fe   -0.00000   -0.00000    0.00000
 41 Fe    0.00000    0.00000    0.00000
 42 Fe    0.00000    0.00000    0.00000
 43 Fe   -0.00000   -0.00000   -0.00000
 44 Fe    0.00000   -0.00000   -0.00000
 45 Fe   -0.00000    0.00000    0.00000
 46 Fe   -0.00000   -0.00000   -0.00000
 47 Fe   -0.00000   -0.00000   -0.00000
 48 Fe    0.00000   -0.00000   -0.00000
 49 Fe    0.00000    0.00000   -0.00000
 50 Fe   -0.00000   -0.00000    0.00000
 51 Fe    0.00000   -0.00000    0.00000
 52 Fe    0.00000   -0.00000    0.00000
 53 Fe    0.00000   -0.00000   -0.00000
 54 Fe   -0.00000   -0.00000   -0.00000
 55 Fe    0.00000   -0.00000    0.00000
 56 Fe   -0.00000    0.00000   -0.00000
 57 Fe    0.00000    0.00000    0.00000
 58 Fe   -0.00000   -0.00000   -0.00000
 59 Fe   -0.00000    0.00000   -0.00000
 60 Fe    0.00000    0.00000   -0.00000
 61 Fe    0.00000    0.00000   -0.00000
 62 Fe   -0.00000   -0.00000   -0.00000
 63 Fe   -0.00000   -0.00000   -0.00000

Stress tensor:
     0.038681     0.000000     0.000000
     0.000000     0.038681    -0.000000
     0.000000    -0.000000     0.038681
Writing to fe_64atoms_relaxed.gpw (mode='')

System changes: positions, cell 

Initialize ...

Fe-setup:
  name: Iron
  id: 37abbd8d6c3c35915a9b583b742da910
  Z: 26
  valence: 8
  core: 18
  charge: 0.0
  file: /home/davidkl/gpaw-setups-0.9.20000/Fe.PBE.gz
  cutoffs: 1.06(comp), 2.06(filt), 2.67(core), lmax=2
  valence states:
                energy  radius
    4s(2.00)    -5.291   1.164
    4p(0.00)    -1.326   1.058
    3d(6.00)    -7.505   1.058
    *s          21.920   1.164
    *p          25.885   1.058
    *d          19.706   1.058

  Using partial waves for Fe as LCAO basis

Reference energy: -2215645.094396

Spin-polarized calculation.
Magnetic moment:  140.800000

Occupation numbers:
  Fermi-Dirac: width=0.0500 eV

Convergence criteria:
  Maximum total energy change: 0.0005 eV / electron
  Maximum integral of absolute density change: 0.0001 electrons
  Maximum integral of absolute eigenstate change: 4e-08 eV^2
  Maximum number of iterations: 333

Symmetries present (total): 6

  ( 1  0  0)  ( 1  0  0)  ( 0  1  0)  ( 0  1  0)  ( 0  0  1)  ( 0  0  1)
  ( 0  1  0)  ( 0  0  1)  ( 1  0  0)  ( 0  0  1)  ( 1  0  0)  ( 0  1  0)
  ( 0  0  1)  ( 0  1  0)  ( 0  0  1)  ( 1  0  0)  ( 0  1  0)  ( 1  0  0)

8 k-points: 2 x 2 x 2 Monkhorst-Pack grid
2 k-points in the irreducible part of the Brillouin zone
       k-points in crystal coordinates                weights
   0:     0.25000000    0.25000000   -0.25000000          6/8
   1:     0.25000000    0.25000000    0.25000000          2/8

Wave functions: Plane wave expansion
  Cutoff energy: 500.000 eV
  Number of coefficients (min, max): 18981, 19116
  Pulay-stress correction: 0.000000 eV/Ang^3 (de/decut=0.000000)
  Using FFTW library
  Eigensolver: None  MatrixOperator buffer_size: default value or 
                              see value of nblock in input file
Diagonalizer layout: Serial LAPACKOrthonormalizer layout: Serial LAPACK 

Davidson(niter=1, smin=None, normalize=True) 

Densities:
  Coarse grid: 42*42*42 grid
  Fine grid: 84*84*84 grid
  Total Charge: 0.000000 

Density mixing:
  Method: sum
  Backend: pulay
  Linear mixing parameter: 0.05
  Mixing with 5 old densities
  Damping of long wave oscillations: 50 

Hamiltonian:
  XC and Coulomb potentials evaluated on a 84*84*84 grid
  Using the PBE Exchange-Correlation functional
 

Memory estimate:
  Process memory now: 1073.83 MiB
  Calculator: 131.99 MiB
    Density: 36.60 MiB
      Arrays: 19.78 MiB
      Localized functions: 11.16 MiB
      Mixer: 5.65 MiB
    Hamiltonian: 14.92 MiB
      Arrays: 14.70 MiB
      XC: 0.00 MiB
      Poisson: 0.00 MiB
      vbar: 0.23 MiB
    Wavefunctions: 80.47 MiB
      Arrays psit_nG: 14.88 MiB
      Eigensolver: 26.87 MiB
      Projections: 0.90 MiB
      Projectors: 2.17 MiB
      Overlap op: 32.61 MiB
      PW-descriptor: 3.04 MiB

Total number of cores used: 32
Parallelization over k-points and spin: 4
Parallelization over states: 8

Number of atoms: 64
Number of atomic orbitals: 576
Adjusting number of bands by +2 to match parallelization
Number of bands in calculation: 408
Bands to converge: occupied states only
Number of valence electrons: 512

... initialized

Initializing position-dependent things.

Density initialized from atomic densities
Creating initial wave functions:
  408 bands from LCAO basis set

                                                       
                                                       
                                                       
                                                       
                                                       
                                                       
                                                       
                                                       
                                                       
                    Fe                                 
                 Fe     Fe                             
               Fe     FFe    Fe                        
            Fe  Fe FFe Fe FFe Fe Fe                    
                 Fe  Fe Fe  Fe Fe                      
               Fe     Fe Fe  Fe     Fe                 
                   Fe  Fe Fe  Fe Fe                    
                    Fe Fe  Fe Fe  Fe                   
                 Fe     Fe  Fe Fe     Fe               
                      Fe Fe  Fe Fe  Fe                 
                    Fe Fe FFe Fe FFe Fe  Fe            
                        Fe    FFe     Fe               
                             Fe     Fe                 
                                 Fe                    
                                                       
                                                       
                                                       
                                                       
                                                       
                                                       
                                                       
                                                       
                                                       

Positions:
   0 Fe     0.000000    0.000000    0.000000
   1 Fe     1.430742    1.430742   -1.430742
   2 Fe     2.861484    2.861484   -2.861484
   3 Fe     4.292225    4.292225   -4.292225
   4 Fe     1.430742   -1.430742    1.430742
   5 Fe     2.861484    0.000000    0.000000
   6 Fe     4.292225    1.430742   -1.430742
   7 Fe     5.722966    2.861484   -2.861484
   8 Fe     2.861484   -2.861484    2.861484
   9 Fe     4.292225   -1.430742    1.430742
  10 Fe     5.722966    0.000000    0.000000
  11 Fe     7.153706    1.430742   -1.430742
  12 Fe     4.292225   -4.292225    4.292225
  13 Fe     5.722966   -2.861484    2.861484
  14 Fe     7.153706   -1.430742    1.430742
  15 Fe     8.584445    0.000000    0.000000
  16 Fe    -1.430742    1.430742    1.430742
  17 Fe     0.000000    2.861484    0.000000
  18 Fe     1.430742    4.292225   -1.430742
  19 Fe     2.861484    5.722966   -2.861484
  20 Fe     0.000000    0.000000    2.861484
  21 Fe     1.430742    1.430742    1.430742
  22 Fe     2.861484    2.861484    0.000000
  23 Fe     4.292225    4.292225   -1.430742
  24 Fe     1.430742   -1.430742    4.292225
  25 Fe     2.861484    0.000000    2.861484
  26 Fe     4.292225    1.430742    1.430742
  27 Fe     5.722966    2.861484    0.000000
  28 Fe     2.861484   -2.861484    5.722966
  29 Fe     4.292225   -1.430742    4.292225
  30 Fe     5.722966   -0.000000    2.861484
  31 Fe     7.153706    1.430742    1.430742
  32 Fe    -2.861484    2.861484    2.861484
  33 Fe    -1.430742    4.292225    1.430742
  34 Fe     0.000000    5.722966    0.000000
  35 Fe     1.430742    7.153706   -1.430742
  36 Fe    -1.430742    1.430742    4.292225
  37 Fe     0.000000    2.861484    2.861484
  38 Fe     1.430742    4.292225    1.430742
  39 Fe     2.861484    5.722966    0.000000
  40 Fe     0.000000    0.000000    5.722966
  41 Fe     1.430742    1.430742    4.292225
  42 Fe     2.861484    2.861484    2.861484
  43 Fe     4.292225    4.292225    1.430742
  44 Fe     1.430742   -1.430742    7.153706
  45 Fe     2.861484   -0.000000    5.722966
  46 Fe     4.292225    1.430742    4.292225
  47 Fe     5.722966    2.861484    2.861484
  48 Fe    -4.292225    4.292225    4.292225
  49 Fe    -2.861484    5.722966    2.861484
  50 Fe    -1.430742    7.153706    1.430742
  51 Fe     0.000000    8.584445    0.000000
  52 Fe    -2.861484    2.861484    5.722966
  53 Fe    -1.430742    4.292225    4.292225
  54 Fe    -0.000000    5.722966    2.861484
  55 Fe     1.430742    7.153706    1.430742
  56 Fe    -1.430742    1.430742    7.153706
  57 Fe    -0.000000    2.861484    5.722966
  58 Fe     1.430742    4.292225    4.292225
  59 Fe     2.861484    5.722966    2.861484
  60 Fe     0.000000    0.000000    8.584445
  61 Fe     1.430742    1.430742    7.153706
  62 Fe     2.861484    2.861484    5.722966
  63 Fe     4.292225    4.292225    4.292225

Unit cell:
           periodic     x           y           z      points  spacing
  1. axis:    yes   -5.720894    5.720894    5.720894    42     0.1926
  2. axis:    yes    5.720894   -5.720894    5.720894    42     0.1926
  3. axis:    yes    5.720894    5.720894   -5.720894    42     0.1926

  Lengths:   9.908879   9.908879   9.908879
  Angles:  109.471221 109.471221 109.471221

Effective grid spacing dv^(1/3) = 0.2162

                     log10-error:    total        iterations:
           time      wfs    density  energy       fermi  poisson  magmom
iter:   1  11:29:23  +1.21   +inf  -564.784741    35              +135.9607
iter:   2  11:29:52  +0.39   +inf  -569.402262    2               +135.9365
iter:   3  11:30:21  -0.57   +inf  -570.462728    2               +135.9310
iter:   4  11:30:54  -0.54  -1.45  -572.883954    4               +135.7631
iter:   5  11:31:26  -0.54  -1.50  -572.211789    35              +136.0958
iter:   6  11:31:59  -0.53  -1.70  -575.821343    35              +139.0604
iter:   7  11:32:32  -0.85  -1.77  -575.634643    4               +138.0539
iter:   8  11:33:05  -0.89  -1.96  -576.684307    4               +137.3827
iter:   9  11:33:37  -1.37  -2.32  -576.905498    4               +137.9724
iter:  10  11:34:10  -2.10  -2.67  -576.918155    4               +137.7457
iter:  11  11:34:43  -2.60  -2.89  -576.931582    3               +137.7844
iter:  12  11:35:15  -2.67  -2.89  -576.940947    3               +137.8048
iter:  13  11:35:48  -3.26  -2.91  -576.949651    3               +137.7820
iter:  14  11:36:21  -3.35  -3.02  -576.954320    3               +137.7934
iter:  15  11:36:54  -3.80  -3.45  -576.954364    3               +137.8075
iter:  16  11:37:26  -3.87  -3.62  -576.953688    3               +137.8308
iter:  17  11:37:59  -4.26  -3.99  -576.953956    3               +137.8251
iter:  18  11:38:32  -4.58  -4.14  -576.953835    3               +137.8340
iter:  19  11:39:04  -4.66  -4.24  -576.954018    3               +137.8275
iter:  20  11:39:37  -5.13  -4.55  -576.953968    2               +137.8299
iter:  21  11:40:10  -5.19  -4.67  -576.954022    2               +137.8282
iter:  22  11:40:42  -5.51  -4.82  -576.953989    2               +137.8299
iter:  23  11:41:15  -5.69  -4.78  -576.953983    2               +137.8303
iter:  24  11:41:48  -5.89  -4.89  -576.953979    2               +137.8305
iter:  25  11:42:20  -6.14  -4.87  -576.953981    2               +137.8305
iter:  26  11:42:53  -6.43  -4.92  -576.953991    2               +137.8302
iter:  27  11:43:26  -6.36  -4.96  -576.953994    2               +137.8302
iter:  28  11:43:58  -6.93  -4.98  -576.954009    2               +137.8297
iter:  29  11:44:31  -7.02  -4.92  -576.954023    2               +137.8293
iter:  30  11:45:04  -7.13  -4.90  -576.954008    2               +137.8298
iter:  31  11:45:36  -7.78  -4.98  -576.954003    2               +137.8300

Converged after 31 iterations.

Dipole moment: (0.003316, 0.003316, 0.003316) |e|*Ang

Total magnetic moment: 137.829956
Local magnetic moments:
   0 Fe 2.242295
   1 Fe 2.244359
   2 Fe 2.244383
   3 Fe 2.242321
   4 Fe 2.244359
   5 Fe 2.246027
   6 Fe 2.246031
   7 Fe 2.244379
   8 Fe 2.244383
   9 Fe 2.246031
  10 Fe 2.246029
  11 Fe 2.244368
  12 Fe 2.242321
  13 Fe 2.244379
  14 Fe 2.244368
  15 Fe 2.242332
  16 Fe 2.244359
  17 Fe 2.246027
  18 Fe 2.246031
  19 Fe 2.244379
  20 Fe 2.246027
  21 Fe 2.247375
  22 Fe 2.247354
  23 Fe 2.246054
  24 Fe 2.246031
  25 Fe 2.247354
  26 Fe 2.247344
  27 Fe 2.246038
  28 Fe 2.244379
  29 Fe 2.246054
  30 Fe 2.246038
  31 Fe 2.244411
  32 Fe 2.244383
  33 Fe 2.246031
  34 Fe 2.246029
  35 Fe 2.244368
  36 Fe 2.246031
  37 Fe 2.247354
  38 Fe 2.247344
  39 Fe 2.246038
  40 Fe 2.246029
  41 Fe 2.247344
  42 Fe 2.247349
  43 Fe 2.246013
  44 Fe 2.244368
  45 Fe 2.246038
  46 Fe 2.246013
  47 Fe 2.244367
  48 Fe 2.242321
  49 Fe 2.244379
  50 Fe 2.244368
  51 Fe 2.242332
  52 Fe 2.244379
  53 Fe 2.246054
  54 Fe 2.246038
  55 Fe 2.244411
  56 Fe 2.244368
  57 Fe 2.246038
  58 Fe 2.246013
  59 Fe 2.244367
  60 Fe 2.242332
  61 Fe 2.244411
  62 Fe 2.244367
  63 Fe 2.242329

Energy contributions relative to reference atoms: (reference = -2215645.094396)

Kinetic:       +376.465480
Potential:     -320.877522
External:        +0.000000
XC:            -638.464053
Entropy (-ST):   -0.382016
Local:           +6.113101
--------------------------
Free energy:   -577.145011
Extrapolated:  -576.954003

Spin contamination: 4.859788 electrons
Fermi level: 9.70695

Showing all kpts
                      Up                     Down
 Kpt  Band  Eigenvalues  Occupancy  Eigenvalues  Occupancy
  0   254      8.75769    0.75000     11.18744    0.00000
  0   255      8.76845    0.75000     11.18746    0.00000
  0   256      8.76849    0.75000     11.18942    0.00000
  0   257      8.76985    0.75000     11.21953    0.00000

  1   254      8.76632    0.25000     11.20275    0.00000
  1   255      8.76683    0.25000     11.20280    0.00000
  1   256      8.76683    0.25000     11.26154    0.00000
  1   257      8.76702    0.25000     11.26154    0.00000



Forces in eV/Ang:
  0 Fe    0.01659    0.01659    0.01659
  1 Fe    0.00651    0.00651    0.02107
  2 Fe    0.00538    0.00538    0.02128
  3 Fe   -0.00528   -0.00528    0.02697
  4 Fe    0.00651    0.02107    0.00651
  5 Fe   -0.00378    0.01101    0.01101
  6 Fe   -0.00465    0.01051    0.01064
  7 Fe   -0.01522   -0.00021    0.01642
  8 Fe    0.00538    0.02128    0.00538
  9 Fe   -0.00465    0.01064    0.01051
 10 Fe   -0.00572    0.01025    0.01025
 11 Fe   -0.01640    0.00019    0.01523
 12 Fe   -0.00528    0.02697   -0.00528
 13 Fe   -0.01522    0.01642   -0.00021
 14 Fe   -0.01640    0.01523    0.00019
 15 Fe   -0.02694    0.00528    0.00528
 16 Fe    0.02107    0.00651    0.00651
 17 Fe    0.01101   -0.00378    0.01101
 18 Fe    0.01051   -0.00465    0.01064
 19 Fe   -0.00021   -0.01522    0.01642
 20 Fe    0.01101    0.01101   -0.00378
 21 Fe    0.00063    0.00063    0.00063
 22 Fe    0.00034    0.00034   -0.00005
 23 Fe   -0.01025   -0.01025    0.00572
 24 Fe    0.01051    0.01064   -0.00465
 25 Fe    0.00034   -0.00005    0.00034
 26 Fe    0.00004   -0.00034   -0.00034
 27 Fe   -0.01064   -0.01052    0.00464
 28 Fe   -0.00021    0.01642   -0.01522
 29 Fe   -0.01025    0.00572   -0.01025
 30 Fe   -0.01064    0.00464   -0.01052
 31 Fe   -0.02128   -0.00539   -0.00539
 32 Fe    0.02128    0.00538    0.00538
 33 Fe    0.01064   -0.00465    0.01051
 34 Fe    0.01025   -0.00572    0.01025
 35 Fe    0.00019   -0.01640    0.01523
 36 Fe    0.01064    0.01051   -0.00465
 37 Fe   -0.00005    0.00034    0.00034
 38 Fe   -0.00034    0.00004   -0.00034
 39 Fe   -0.01052   -0.01064    0.00464
 40 Fe    0.01025    0.01025   -0.00572
 41 Fe   -0.00034   -0.00034    0.00004
 42 Fe   -0.00064   -0.00064   -0.00064
 43 Fe   -0.01102   -0.01102    0.00376
 44 Fe    0.00019    0.01523   -0.01640
 45 Fe   -0.01052    0.00464   -0.01064
 46 Fe   -0.01102    0.00376   -0.01102
 47 Fe   -0.02108   -0.00652   -0.00652
 48 Fe    0.02697   -0.00528   -0.00528
 49 Fe    0.01642   -0.01522   -0.00021
 50 Fe    0.01523   -0.01640    0.00019
 51 Fe    0.00528   -0.02694    0.00528
 52 Fe    0.01642   -0.00021   -0.01522
 53 Fe    0.00572   -0.01025   -0.01025
 54 Fe    0.00464   -0.01064   -0.01052
 55 Fe   -0.00539   -0.02128   -0.00539
 56 Fe    0.01523    0.00019   -0.01640
 57 Fe    0.00464   -0.01052   -0.01064
 58 Fe    0.00376   -0.01102   -0.01102
 59 Fe   -0.00652   -0.02108   -0.00652
 60 Fe    0.00528    0.00528   -0.02694
 61 Fe   -0.00539   -0.00539   -0.02128
 62 Fe   -0.00652   -0.00652   -0.02108
 63 Fe   -0.01660   -0.01660   -0.01660

Stress tensor:
     0.039275     0.000039     0.000039
     0.000039     0.039275     0.000039
     0.000039     0.000039     0.039275
System changes: positions, cell 

Initialize ...

Fe-setup:
  name: Iron
  id: 37abbd8d6c3c35915a9b583b742da910
  Z: 26
  valence: 8
  core: 18
  charge: 0.0
  file: /home/davidkl/gpaw-setups-0.9.20000/Fe.PBE.gz
  cutoffs: 1.06(comp), 2.06(filt), 2.67(core), lmax=2
  valence states:
                energy  radius
    4s(2.00)    -5.291   1.164
    4p(0.00)    -1.326   1.058
    3d(6.00)    -7.505   1.058
    *s          21.920   1.164
    *p          25.885   1.058
    *d          19.706   1.058

  Using partial waves for Fe as LCAO basis

Reference energy: -2215645.094396

Spin-polarized calculation.
Magnetic moment:  140.800000

Occupation numbers:
  Fermi-Dirac: width=0.0500 eV

Convergence criteria:
  Maximum total energy change: 0.0005 eV / electron
  Maximum integral of absolute density change: 0.0001 electrons
  Maximum integral of absolute eigenstate change: 4e-08 eV^2
  Maximum number of iterations: 333

Symmetries present (total): 48

  ( 1  1  1)  ( 1  1  1)  ( 1  1  1)  ( 1  1  1)  ( 1  1  1)  ( 1  1  1)
  ( 0  0 -1)  ( 0  0 -1)  ( 0 -1  0)  ( 0 -1  0)  (-1  0  0)  (-1  0  0)
  ( 0 -1  0)  (-1  0  0)  ( 0  0 -1)  (-1  0  0)  ( 0  0 -1)  ( 0 -1  0)

  ( 1  0  0)  ( 1  0  0)  ( 1  0  0)  ( 1  0  0)  ( 1  0  0)  ( 1  0  0)
  ( 0  1  0)  ( 0  1  0)  ( 0  0  1)  ( 0  0  1)  (-1 -1 -1)  (-1 -1 -1)
  ( 0  0  1)  (-1 -1 -1)  ( 0  1  0)  (-1 -1 -1)  ( 0  1  0)  ( 0  0  1)

  ( 0  1  0)  ( 0  1  0)  ( 0  1  0)  ( 0  1  0)  ( 0  1  0)  ( 0  1  0)
  ( 1  0  0)  ( 1  0  0)  ( 0  0  1)  ( 0  0  1)  (-1 -1 -1)  (-1 -1 -1)
  ( 0  0  1)  (-1 -1 -1)  ( 1  0  0)  (-1 -1 -1)  ( 1  0  0)  ( 0  0  1)

  ( 0  0  1)  ( 0  0  1)  ( 0  0  1)  ( 0  0  1)  ( 0  0  1)  ( 0  0  1)
  ( 1  0  0)  ( 1  0  0)  ( 0  1  0)  ( 0  1  0)  (-1 -1 -1)  (-1 -1 -1)
  ( 0  1  0)  (-1 -1 -1)  ( 1  0  0)  (-1 -1 -1)  ( 1  0  0)  ( 0  1  0)

  ( 0  0 -1)  ( 0  0 -1)  ( 0  0 -1)  ( 0  0 -1)  ( 0  0 -1)  ( 0  0 -1)
  ( 1  1  1)  ( 1  1  1)  ( 0 -1  0)  ( 0 -1  0)  (-1  0  0)  (-1  0  0)
  ( 0 -1  0)  (-1  0  0)  ( 1  1  1)  (-1  0  0)  ( 1  1  1)  ( 0 -1  0)

  ( 0 -1  0)  ( 0 -1  0)  ( 0 -1  0)  ( 0 -1  0)  ( 0 -1  0)  ( 0 -1  0)
  ( 1  1  1)  ( 1  1  1)  ( 0  0 -1)  ( 0  0 -1)  (-1  0  0)  (-1  0  0)
  ( 0  0 -1)  (-1  0  0)  ( 1  1  1)  (-1  0  0)  ( 1  1  1)  ( 0  0 -1)

  (-1  0  0)  (-1  0  0)  (-1  0  0)  (-1  0  0)  (-1  0  0)  (-1  0  0)
  ( 1  1  1)  ( 1  1  1)  ( 0  0 -1)  ( 0  0 -1)  ( 0 -1  0)  ( 0 -1  0)
  ( 0  0 -1)  ( 0 -1  0)  ( 1  1  1)  ( 0 -1  0)  ( 1  1  1)  ( 0  0 -1)

  (-1 -1 -1)  (-1 -1 -1)  (-1 -1 -1)  (-1 -1 -1)  (-1 -1 -1)  (-1 -1 -1)
  ( 1  0  0)  ( 1  0  0)  ( 0  1  0)  ( 0  1  0)  ( 0  0  1)  ( 0  0  1)
  ( 0  1  0)  ( 0  0  1)  ( 1  0  0)  ( 0  0  1)  ( 1  0  0)  ( 0  1  0)

8 k-points: 2 x 2 x 2 Monkhorst-Pack grid
2 k-points in the irreducible part of the Brillouin zone
       k-points in crystal coordinates                weights
   0:     0.25000000    0.25000000   -0.25000000          6/8
   1:     0.25000000    0.25000000    0.25000000          2/8

Wave functions: Plane wave expansion
  Cutoff energy: 500.000 eV
  Number of coefficients (min, max): 18981, 19116
  Pulay-stress correction: 0.000000 eV/Ang^3 (de/decut=0.000000)
  Using FFTW library
  Eigensolver: None  MatrixOperator buffer_size: default value or 
                              see value of nblock in input file
Diagonalizer layout: Serial LAPACKOrthonormalizer layout: Serial LAPACK 

Davidson(niter=1, smin=None, normalize=True) 

Densities:
  Coarse grid: 42*42*42 grid
  Fine grid: 84*84*84 grid
  Total Charge: 0.000000 

Density mixing:
  Method: sum
  Backend: pulay
  Linear mixing parameter: 0.05
  Mixing with 5 old densities
  Damping of long wave oscillations: 50 

Hamiltonian:
  XC and Coulomb potentials evaluated on a 84*84*84 grid
  Using the PBE Exchange-Correlation functional
 

Memory estimate:
  Process memory now: 1081.97 MiB
  Calculator: 131.99 MiB
    Density: 36.60 MiB
      Arrays: 19.78 MiB
      Localized functions: 11.16 MiB
      Mixer: 5.65 MiB
    Hamiltonian: 14.92 MiB
      Arrays: 14.70 MiB
      XC: 0.00 MiB
      Poisson: 0.00 MiB
      vbar: 0.23 MiB
    Wavefunctions: 80.47 MiB
      Arrays psit_nG: 14.88 MiB
      Eigensolver: 26.87 MiB
      Projections: 0.90 MiB
      Projectors: 2.17 MiB
      Overlap op: 32.61 MiB
      PW-descriptor: 3.04 MiB

Total number of cores used: 32
Parallelization over k-points and spin: 4
Parallelization over states: 8

Number of atoms: 64
Number of atomic orbitals: 576
Adjusting number of bands by +2 to match parallelization
Number of bands in calculation: 408
Bands to converge: occupied states only
Number of valence electrons: 512

... initialized

Initializing position-dependent things.

Density initialized from atomic densities
Creating initial wave functions:
  408 bands from LCAO basis set

                                                       
                                                       
                                                       
                                                       
                                                       
                                                       
                                                       
                                                       
                                                       
                    Fe                                 
                 Fe     Fe                             
               Fe     FFe    Fe                        
            Fe  Fe FFe Fe FFe Fe Fe                    
                 Fe  Fe Fe  Fe Fe                      
               Fe     Fe Fe  Fe     Fe                 
                   Fe  Fe Fe  Fe Fe                    
                    Fe Fe  Fe Fe  Fe                   
                 Fe     Fe  Fe Fe     Fe               
                      Fe Fe  Fe Fe  Fe                 
                    Fe Fe FFe Fe FFe Fe  Fe            
                        Fe    FFe     Fe               
                             Fe     Fe                 
                                 Fe                    
                                                       
                                                       
                                                       
                                                       
                                                       
                                                       
                                                       
                                                       
                                                       

Positions:
   0 Fe     0.000000    0.000000    0.000000
   1 Fe     1.430000    1.430000   -1.430000
   2 Fe     2.860000    2.860000   -2.860000
   3 Fe     4.290000    4.290000   -4.290000
   4 Fe     1.430000   -1.430000    1.430000
   5 Fe     2.860000    0.000000    0.000000
   6 Fe     4.290000    1.430000   -1.430000
   7 Fe     5.720000    2.860000   -2.860000
   8 Fe     2.860000   -2.860000    2.860000
   9 Fe     4.290000   -1.430000    1.430000
  10 Fe     5.720000    0.000000    0.000000
  11 Fe     7.150000    1.430000   -1.430000
  12 Fe     4.290000   -4.290000    4.290000
  13 Fe     5.720000   -2.860000    2.860000
  14 Fe     7.150000   -1.430000    1.430000
  15 Fe     8.580000    0.000000    0.000000
  16 Fe    -1.430000    1.430000    1.430000
  17 Fe     0.000000    2.860000    0.000000
  18 Fe     1.430000    4.290000   -1.430000
  19 Fe     2.860000    5.720000   -2.860000
  20 Fe     0.000000    0.000000    2.860000
  21 Fe     1.430000    1.430000    1.430000
  22 Fe     2.860000    2.860000    0.000000
  23 Fe     4.290000    4.290000   -1.430000
  24 Fe     1.430000   -1.430000    4.290000
  25 Fe     2.860000    0.000000    2.860000
  26 Fe     4.290000    1.430000    1.430000
  27 Fe     5.720000    2.860000    0.000000
  28 Fe     2.860000   -2.860000    5.720000
  29 Fe     4.290000   -1.430000    4.290000
  30 Fe     5.720000   -0.000000    2.860000
  31 Fe     7.150000    1.430000    1.430000
  32 Fe    -2.860000    2.860000    2.860000
  33 Fe    -1.430000    4.290000    1.430000
  34 Fe     0.000000    5.720000    0.000000
  35 Fe     1.430000    7.150000   -1.430000
  36 Fe    -1.430000    1.430000    4.290000
  37 Fe     0.000000    2.860000    2.860000
  38 Fe     1.430000    4.290000    1.430000
  39 Fe     2.860000    5.720000    0.000000
  40 Fe     0.000000    0.000000    5.720000
  41 Fe     1.430000    1.430000    4.290000
  42 Fe     2.860000    2.860000    2.860000
  43 Fe     4.290000    4.290000    1.430000
  44 Fe     1.430000   -1.430000    7.150000
  45 Fe     2.860000   -0.000000    5.720000
  46 Fe     4.290000    1.430000    4.290000
  47 Fe     5.720000    2.860000    2.860000
  48 Fe    -4.290000    4.290000    4.290000
  49 Fe    -2.860000    5.720000    2.860000
  50 Fe    -1.430000    7.150000    1.430000
  51 Fe     0.000000    8.580000    0.000000
  52 Fe    -2.860000    2.860000    5.720000
  53 Fe    -1.430000    4.290000    4.290000
  54 Fe    -0.000000    5.720000    2.860000
  55 Fe     1.430000    7.150000    1.430000
  56 Fe    -1.430000    1.430000    7.150000
  57 Fe    -0.000000    2.860000    5.720000
  58 Fe     1.430000    4.290000    4.290000
  59 Fe     2.860000    5.720000    2.860000
  60 Fe     0.000000    0.000000    8.580000
  61 Fe     1.430000    1.430000    7.150000
  62 Fe     2.860000    2.860000    5.720000
  63 Fe     4.290000    4.290000    4.290000

Unit cell:
           periodic     x           y           z      points  spacing
  1. axis:    yes   -5.720000    5.720000    5.720000    42     0.1926
  2. axis:    yes    5.720000   -5.720000    5.720000    42     0.1926
  3. axis:    yes    5.720000    5.720000   -5.720000    42     0.1926

  Lengths:   9.907331   9.907331   9.907331
  Angles:  109.471221 109.471221 109.471221

Effective grid spacing dv^(1/3) = 0.2162

                     log10-error:    total        iterations:
           time      wfs    density  energy       fermi  poisson  magmom
iter:   1  11:51:06  +1.21   +inf  -564.804333    36              +135.9582
iter:   2  11:51:34  +0.39   +inf  -569.423900    2               +135.9341
iter:   3  11:52:03  -0.57   +inf  -570.485571    2               +135.9286
iter:   4  11:52:36  -0.54  -1.45  -572.903897    4               +135.7575
iter:   5  11:53:09  -0.54  -1.50  -572.222816    33              +136.0914
iter:   6  11:53:42  -0.49  -1.70  -575.854835    36              +139.4150
iter:   7  11:54:15  -0.15  -1.76  -576.167146    5               +136.8763
iter:   8  11:54:48  -0.93  -2.01  -576.665941    4               +138.4354
iter:   9  11:55:22  -1.89  -2.24  -577.038744    4               +138.5917
iter:  10  11:55:55  -2.06  -2.28  -576.979915    4               +138.2926
iter:  11  11:56:28  -2.21  -2.46  -576.961730    4               +137.8636
iter:  12  11:57:01  -2.98  -3.25  -576.969593    3               +137.7703
iter:  13  11:57:34  -2.84  -3.18  -576.967234    3               +137.8137
iter:  14  11:58:07  -3.82  -4.11  -576.967926    3               +137.8263
iter:  15  11:58:40  -3.80  -4.30  -576.968390    2               +137.8251
iter:  16  11:59:13  -4.35  -4.30  -576.968596    2               +137.8211
iter:  17  11:59:46  -4.44  -4.57  -576.968663    2               +137.8223
iter:  18  12:00:20  -4.80  -4.62  -576.968646    2               +137.8252
iter:  19  12:00:53  -4.44  -4.39  -576.969196    3               +137.8123
iter:  20  12:01:26  -5.08  -3.97  -576.969122    2               +137.8157
iter:  21  12:01:59  -5.43  -4.14  -576.969079    2               +137.8172
iter:  22  12:02:35  -4.38  -4.20  -576.968597    3               +137.8343
iter:  23  12:03:08  -4.99  -4.00  -576.968716    3               +137.8287
iter:  24  12:03:41  -6.13  -4.34  -576.968734    2               +137.8283
iter:  25  12:04:14  -5.61  -4.38  -576.968830    2               +137.8249
iter:  26  12:04:47  -5.53  -4.96  -576.968734    2               +137.8287
iter:  27  12:05:20  -5.60  -4.36  -576.968842    2               +137.8245
iter:  28  12:05:53  -6.85  -5.10  -576.968854    2               +137.8241
iter:  29  12:06:26  -6.75  -5.49  -576.968858    2               +137.8240
iter:  30  12:07:00  -7.32  -5.67  -576.968860    2               +137.8239
iter:  31  12:07:33  -7.19  -5.77  -576.968860    1               +137.8239
iter:  32  12:08:06  -7.68  -5.84  -576.968853    2               +137.8241

Converged after 32 iterations.

Dipole moment: (0.000000, 0.000000, -0.000000) |e|*Ang

Total magnetic moment: 137.824136
Local magnetic moments:
   0 Fe 2.245596
   1 Fe 2.245602
   2 Fe 2.245596
   3 Fe 2.245602
   4 Fe 2.245602
   5 Fe 2.245605
   6 Fe 2.245602
   7 Fe 2.245605
   8 Fe 2.245596
   9 Fe 2.245602
  10 Fe 2.245596
  11 Fe 2.245602
  12 Fe 2.245602
  13 Fe 2.245605
  14 Fe 2.245602
  15 Fe 2.245605
  16 Fe 2.245602
  17 Fe 2.245605
  18 Fe 2.245602
  19 Fe 2.245605
  20 Fe 2.245605
  21 Fe 2.245602
  22 Fe 2.245605
  23 Fe 2.245602
  24 Fe 2.245602
  25 Fe 2.245605
  26 Fe 2.245602
  27 Fe 2.245605
  28 Fe 2.245605
  29 Fe 2.245602
  30 Fe 2.245605
  31 Fe 2.245602
  32 Fe 2.245596
  33 Fe 2.245602
  34 Fe 2.245596
  35 Fe 2.245602
  36 Fe 2.245602
  37 Fe 2.245605
  38 Fe 2.245602
  39 Fe 2.245605
  40 Fe 2.245596
  41 Fe 2.245602
  42 Fe 2.245596
  43 Fe 2.245602
  44 Fe 2.245602
  45 Fe 2.245605
  46 Fe 2.245602
  47 Fe 2.245605
  48 Fe 2.245602
  49 Fe 2.245605
  50 Fe 2.245602
  51 Fe 2.245605
  52 Fe 2.245605
  53 Fe 2.245602
  54 Fe 2.245605
  55 Fe 2.245602
  56 Fe 2.245602
  57 Fe 2.245605
  58 Fe 2.245602
  59 Fe 2.245605
  60 Fe 2.245605
  61 Fe 2.245602
  62 Fe 2.245605
  63 Fe 2.245602

Energy contributions relative to reference atoms: (reference = -2215645.094396)

Kinetic:       +378.242790
Potential:     -322.440624
External:        +0.000000
XC:            -638.781801
Entropy (-ST):   -0.381530
Local:           +6.201547
--------------------------
Free energy:   -577.159618
Extrapolated:  -576.968853

Spin contamination: 4.856988 electrons
Fermi level: 9.71389

Showing all kpts
                      Up                     Down
 Kpt  Band  Eigenvalues  Occupancy  Eigenvalues  Occupancy
  0   254      8.76373    0.75000     11.19435    0.00000
  0   255      8.77582    0.75000     11.19436    0.00000
  0   256      8.77582    0.75000     11.19561    0.00000
  0   257      8.77660    0.75000     11.22726    0.00000

  1   254      8.77339    0.25000     11.20904    0.00000
  1   255      8.77369    0.25000     11.20904    0.00000
  1   256      8.77369    0.25000     11.26905    0.00000
  1   257      8.77369    0.25000     11.26905    0.00000


System changes: positions, cell 

Initialize ...

Fe-setup:
  name: Iron
  id: 37abbd8d6c3c35915a9b583b742da910
  Z: 26
  valence: 8
  core: 18
  charge: 0.0
  file: /home/davidkl/gpaw-setups-0.9.20000/Fe.PBE.gz
  cutoffs: 1.06(comp), 2.06(filt), 2.67(core), lmax=2
  valence states:
                energy  radius
    4s(2.00)    -5.291   1.164
    4p(0.00)    -1.326   1.058
    3d(6.00)    -7.505   1.058
    *s          21.920   1.164
    *p          25.885   1.058
    *d          19.706   1.058

  Using partial waves for Fe as LCAO basis

Reference energy: -2215645.094396

Spin-polarized calculation.
Magnetic moment:  140.800000

Occupation numbers:
  Fermi-Dirac: width=0.0500 eV

Convergence criteria:
  Maximum total energy change: 0.0005 eV / electron
  Maximum integral of absolute density change: 0.0001 electrons
  Maximum integral of absolute eigenstate change: 4e-08 eV^2
  Maximum number of iterations: 333

Symmetries present (total): 48

  ( 1  1  1)  ( 1  1  1)  ( 1  1  1)  ( 1  1  1)  ( 1  1  1)  ( 1  1  1)
  ( 0  0 -1)  ( 0  0 -1)  ( 0 -1  0)  ( 0 -1  0)  (-1  0  0)  (-1  0  0)
  ( 0 -1  0)  (-1  0  0)  ( 0  0 -1)  (-1  0  0)  ( 0  0 -1)  ( 0 -1  0)

  ( 1  0  0)  ( 1  0  0)  ( 1  0  0)  ( 1  0  0)  ( 1  0  0)  ( 1  0  0)
  ( 0  1  0)  ( 0  1  0)  ( 0  0  1)  ( 0  0  1)  (-1 -1 -1)  (-1 -1 -1)
  ( 0  0  1)  (-1 -1 -1)  ( 0  1  0)  (-1 -1 -1)  ( 0  1  0)  ( 0  0  1)

  ( 0  1  0)  ( 0  1  0)  ( 0  1  0)  ( 0  1  0)  ( 0  1  0)  ( 0  1  0)
  ( 1  0  0)  ( 1  0  0)  ( 0  0  1)  ( 0  0  1)  (-1 -1 -1)  (-1 -1 -1)
  ( 0  0  1)  (-1 -1 -1)  ( 1  0  0)  (-1 -1 -1)  ( 1  0  0)  ( 0  0  1)

  ( 0  0  1)  ( 0  0  1)  ( 0  0  1)  ( 0  0  1)  ( 0  0  1)  ( 0  0  1)
  ( 1  0  0)  ( 1  0  0)  ( 0  1  0)  ( 0  1  0)  (-1 -1 -1)  (-1 -1 -1)
  ( 0  1  0)  (-1 -1 -1)  ( 1  0  0)  (-1 -1 -1)  ( 1  0  0)  ( 0  1  0)

  ( 0  0 -1)  ( 0  0 -1)  ( 0  0 -1)  ( 0  0 -1)  ( 0  0 -1)  ( 0  0 -1)
  ( 1  1  1)  ( 1  1  1)  ( 0 -1  0)  ( 0 -1  0)  (-1  0  0)  (-1  0  0)
  ( 0 -1  0)  (-1  0  0)  ( 1  1  1)  (-1  0  0)  ( 1  1  1)  ( 0 -1  0)

  ( 0 -1  0)  ( 0 -1  0)  ( 0 -1  0)  ( 0 -1  0)  ( 0 -1  0)  ( 0 -1  0)
  ( 1  1  1)  ( 1  1  1)  ( 0  0 -1)  ( 0  0 -1)  (-1  0  0)  (-1  0  0)
  ( 0  0 -1)  (-1  0  0)  ( 1  1  1)  (-1  0  0)  ( 1  1  1)  ( 0  0 -1)

  (-1  0  0)  (-1  0  0)  (-1  0  0)  (-1  0  0)  (-1  0  0)  (-1  0  0)
  ( 1  1  1)  ( 1  1  1)  ( 0  0 -1)  ( 0  0 -1)  ( 0 -1  0)  ( 0 -1  0)
  ( 0  0 -1)  ( 0 -1  0)  ( 1  1  1)  ( 0 -1  0)  ( 1  1  1)  ( 0  0 -1)

  (-1 -1 -1)  (-1 -1 -1)  (-1 -1 -1)  (-1 -1 -1)  (-1 -1 -1)  (-1 -1 -1)
  ( 1  0  0)  ( 1  0  0)  ( 0  1  0)  ( 0  1  0)  ( 0  0  1)  ( 0  0  1)
  ( 0  1  0)  ( 0  0  1)  ( 1  0  0)  ( 0  0  1)  ( 1  0  0)  ( 0  1  0)

8 k-points: 2 x 2 x 2 Monkhorst-Pack grid
2 k-points in the irreducible part of the Brillouin zone
       k-points in crystal coordinates                weights
   0:     0.25000000    0.25000000   -0.25000000          6/8
   1:     0.25000000    0.25000000    0.25000000          2/8

Wave functions: Plane wave expansion
  Cutoff energy: 500.000 eV
  Number of coefficients (min, max): 18876, 18981
  Pulay-stress correction: 0.000000 eV/Ang^3 (de/decut=0.000000)
  Using FFTW library
  Eigensolver: None  MatrixOperator buffer_size: default value or 
                              see value of nblock in input file
Diagonalizer layout: Serial LAPACKOrthonormalizer layout: Serial LAPACK 

Davidson(niter=1, smin=None, normalize=True) 

Densities:
  Coarse grid: 42*42*42 grid
  Fine grid: 84*84*84 grid
  Total Charge: 0.000000 

Density mixing:
  Method: sum
  Backend: pulay
  Linear mixing parameter: 0.05
  Mixing with 5 old densities
  Damping of long wave oscillations: 50 

Hamiltonian:
  XC and Coulomb potentials evaluated on a 84*84*84 grid
  Using the PBE Exchange-Correlation functional
 

Memory estimate:
  Process memory now: 1083.29 MiB
  Calculator: 131.66 MiB
    Density: 36.60 MiB
      Arrays: 19.78 MiB
      Localized functions: 11.16 MiB
      Mixer: 5.65 MiB
    Hamiltonian: 14.92 MiB
      Arrays: 14.70 MiB
      XC: 0.00 MiB
      Poisson: 0.00 MiB
      vbar: 0.23 MiB
    Wavefunctions: 80.14 MiB
      Arrays psit_nG: 14.77 MiB
      Eigensolver: 26.86 MiB
      Projections: 0.90 MiB
      Projectors: 2.17 MiB
      Overlap op: 32.40 MiB
      PW-descriptor: 3.04 MiB

Total number of cores used: 32
Parallelization over k-points and spin: 4
Parallelization over states: 8

Number of atoms: 64
Number of atomic orbitals: 576
Adjusting number of bands by +2 to match parallelization
Number of bands in calculation: 408
Bands to converge: occupied states only
Number of valence electrons: 512

... initialized

Initializing position-dependent things.

Density initialized from atomic densities
Creating initial wave functions:
  408 bands from LCAO basis set

                                                       
                                                       
                                                       
                                                       
                                                       
                                                       
                                                       
                                                       
                                                       
                    Fe                                 
                 Fe     Fe                             
               Fe     FFe    Fe                        
            Fe  Fe FFe Fe FFe Fe Fe                    
                 Fe  Fe Fe  Fe Fe                      
               Fe     Fe Fe  Fe     Fe                 
                   Fe  Fe Fe  Fe Fe                    
                    Fe Fe  Fe Fe  Fe                   
                 Fe     Fe  Fe Fe     Fe               
                      Fe Fe  Fe Fe  Fe                 
                    Fe Fe FFe Fe FFe Fe  Fe            
                        Fe    FFe     Fe               
                             Fe     Fe                 
                                 Fe                    
                                                       
                                                       
                                                       
                                                       
                                                       
                                                       
                                                       
                                                       
                                                       

Positions:
   0 Fe     0.000000    0.000000   -0.000000
   1 Fe     1.429106    1.429106   -1.429106
   2 Fe     2.858213    2.858213   -2.858213
   3 Fe     4.287319    4.287319   -4.287319
   4 Fe     1.429106   -1.429106    1.429106
   5 Fe     2.858213    0.000000   -0.000000
   6 Fe     4.287319    1.429106   -1.429106
   7 Fe     5.716425    2.858212   -2.858212
   8 Fe     2.858213   -2.858213    2.858213
   9 Fe     4.287319   -1.429106    1.429106
  10 Fe     5.716425    0.000000    0.000000
  11 Fe     7.145531    1.429106   -1.429106
  12 Fe     4.287319   -4.287319    4.287319
  13 Fe     5.716425   -2.858212    2.858212
  14 Fe     7.145531   -1.429106    1.429106
  15 Fe     8.574637    0.000000   -0.000000
  16 Fe    -1.429106    1.429106    1.429106
  17 Fe     0.000000    2.858213   -0.000000
  18 Fe     1.429106    4.287319   -1.429106
  19 Fe     2.858212    5.716425   -2.858212
  20 Fe     0.000000    0.000000    2.858213
  21 Fe     1.429106    1.429106    1.429106
  22 Fe     2.858213    2.858213    0.000000
  23 Fe     4.287319    4.287319   -1.429106
  24 Fe     1.429106   -1.429106    4.287319
  25 Fe     2.858213    0.000000    2.858213
  26 Fe     4.287319    1.429106    1.429106
  27 Fe     5.716425    2.858213    0.000000
  28 Fe     2.858212   -2.858212    5.716425
  29 Fe     4.287319   -1.429106    4.287319
  30 Fe     5.716425   -0.000000    2.858213
  31 Fe     7.145531    1.429106    1.429106
  32 Fe    -2.858213    2.858213    2.858213
  33 Fe    -1.429106    4.287319    1.429106
  34 Fe     0.000000    5.716425    0.000000
  35 Fe     1.429106    7.145531   -1.429106
  36 Fe    -1.429106    1.429106    4.287319
  37 Fe     0.000000    2.858213    2.858213
  38 Fe     1.429106    4.287319    1.429106
  39 Fe     2.858213    5.716425    0.000000
  40 Fe     0.000000    0.000000    5.716425
  41 Fe     1.429106    1.429106    4.287319
  42 Fe     2.858213    2.858213    2.858213
  43 Fe     4.287319    4.287319    1.429106
  44 Fe     1.429106   -1.429106    7.145531
  45 Fe     2.858213   -0.000000    5.716425
  46 Fe     4.287319    1.429106    4.287319
  47 Fe     5.716425    2.858212    2.858212
  48 Fe    -4.287319    4.287319    4.287319
  49 Fe    -2.858212    5.716425    2.858212
  50 Fe    -1.429106    7.145531    1.429106
  51 Fe     0.000000    8.574637    0.000000
  52 Fe    -2.858212    2.858212    5.716425
  53 Fe    -1.429106    4.287319    4.287319
  54 Fe    -0.000000    5.716425    2.858213
  55 Fe     1.429106    7.145531    1.429106
  56 Fe    -1.429106    1.429106    7.145531
  57 Fe    -0.000000    2.858213    5.716425
  58 Fe     1.429106    4.287319    4.287319
  59 Fe     2.858212    5.716425    2.858212
  60 Fe     0.000000    0.000000    8.574637
  61 Fe     1.429106    1.429106    7.145531
  62 Fe     2.858212    2.858212    5.716425
  63 Fe     4.287319    4.287319    4.287319

Unit cell:
           periodic     x           y           z      points  spacing
  1. axis:    yes   -5.716425    5.716425    5.716425    42     0.1925
  2. axis:    yes    5.716425   -5.716425    5.716425    42     0.1925
  3. axis:    yes    5.716425    5.716425   -5.716425    42     0.1925

  Lengths:   9.901139   9.901139   9.901139
  Angles:  109.471221 109.471221 109.471221

Effective grid spacing dv^(1/3) = 0.2161

                     log10-error:    total        iterations:
           time      wfs    density  energy       fermi  poisson  magmom
iter:   1  12:09:27  +1.22   +inf  -564.858303    35              +135.9483
iter:   2  12:09:56  +0.39   +inf  -569.487246    2               +135.9239
iter:   3  12:10:25  -0.57   +inf  -570.551623    2               +135.9182
iter:   4  12:10:58  -0.54  -1.45  -572.957855    4               +135.7327
iter:   5  12:11:31  -0.53  -1.50  -572.257508    35              +136.0682
iter:   6  12:12:05  -0.49  -1.70  -575.899166    37              +139.3353
iter:   7  12:12:38  -0.15  -1.76  -576.197529    5               +136.8277
iter:   8  12:13:11  -0.94  -2.01  -576.697114    5               +138.3604
iter:   9  12:13:45  -1.86  -2.24  -577.072498    4               +138.5552
iter:  10  12:14:18  -2.02  -2.27  -577.006587    4               +138.2471
iter:  11  12:14:52  -2.19  -2.45  -576.992568    4               +137.8198
iter:  12  12:15:25  -3.08  -3.27  -576.996673    3               +137.7897
iter:  13  12:15:58  -3.09  -3.70  -576.998805    3               +137.7617
iter:  14  12:16:32  -3.68  -3.42  -576.999219    2               +137.7660
iter:  15  12:17:05  -3.29  -3.45  -577.002337    3               +137.7387
iter:  16  12:17:38  -3.33  -3.26  -576.999664    3               +137.7798
iter:  17  12:18:12  -4.28  -3.83  -576.999943    2               +137.7812
iter:  18  12:18:45  -4.08  -4.01  -576.999970    2               +137.7839
iter:  19  12:19:18  -4.80  -4.44  -576.999911    3               +137.7889
iter:  20  12:19:52  -4.62  -4.81  -576.999913    2               +137.7898
iter:  21  12:20:25  -5.24  -4.53  -577.000016    2               +137.7870
iter:  22  12:20:58  -5.33  -4.82  -577.000054    2               +137.7860
iter:  23  12:21:32  -5.72  -4.68  -577.000017    2               +137.7878
iter:  24  12:22:05  -5.67  -4.93  -577.000010    2               +137.7881
iter:  25  12:22:38  -6.16  -5.17  -576.999990    2               +137.7891
iter:  26  12:23:12  -5.95  -4.95  -576.999952    2               +137.7907
iter:  27  12:23:45  -6.56  -5.33  -576.999951    2               +137.7910
iter:  28  12:24:19  -6.52  -5.53  -576.999945    2               +137.7912
iter:  29  12:24:52  -6.95  -5.60  -576.999943    2               +137.7913
iter:  30  12:25:26  -6.74  -5.64  -576.999921    2               +137.7922
iter:  31  12:25:59  -7.26  -5.22  -576.999921    2               +137.7922
iter:  32  12:26:33  -7.16  -5.37  -576.999937    2               +137.7917
iter:  33  12:27:06  -7.51  -5.52  -576.999934    2               +137.7918

Converged after 33 iterations.

Dipole moment: (0.000000, 0.000000, -0.000000) |e|*Ang

Total magnetic moment: 137.791760
Local magnetic moments:
   0 Fe 2.244751
   1 Fe 2.244762
   2 Fe 2.244751
   3 Fe 2.244762
   4 Fe 2.244762
   5 Fe 2.244767
   6 Fe 2.244762
   7 Fe 2.244767
   8 Fe 2.244751
   9 Fe 2.244762
  10 Fe 2.244751
  11 Fe 2.244762
  12 Fe 2.244762
  13 Fe 2.244767
  14 Fe 2.244762
  15 Fe 2.244767
  16 Fe 2.244762
  17 Fe 2.244767
  18 Fe 2.244762
  19 Fe 2.244767
  20 Fe 2.244767
  21 Fe 2.244762
  22 Fe 2.244767
  23 Fe 2.244762
  24 Fe 2.244762
  25 Fe 2.244767
  26 Fe 2.244762
  27 Fe 2.244767
  28 Fe 2.244767
  29 Fe 2.244762
  30 Fe 2.244767
  31 Fe 2.244762
  32 Fe 2.244751
  33 Fe 2.244762
  34 Fe 2.244751
  35 Fe 2.244762
  36 Fe 2.244762
  37 Fe 2.244767
  38 Fe 2.244762
  39 Fe 2.244767
  40 Fe 2.244751
  41 Fe 2.244762
  42 Fe 2.244751
  43 Fe 2.244762
  44 Fe 2.244762
  45 Fe 2.244767
  46 Fe 2.244762
  47 Fe 2.244767
  48 Fe 2.244762
  49 Fe 2.244767
  50 Fe 2.244762
  51 Fe 2.244767
  52 Fe 2.244767
  53 Fe 2.244762
  54 Fe 2.244767
  55 Fe 2.244762
  56 Fe 2.244762
  57 Fe 2.244767
  58 Fe 2.244762
  59 Fe 2.244767
  60 Fe 2.244767
  61 Fe 2.244762
  62 Fe 2.244767
  63 Fe 2.244762

Energy contributions relative to reference atoms: (reference = -2215645.094396)

Kinetic:       +384.278408
Potential:     -327.218401
External:        +0.000000
XC:            -640.021685
Entropy (-ST):   -0.379328
Local:           +6.151407
--------------------------
Free energy:   -577.189598
Extrapolated:  -576.999934

Spin contamination: 4.835967 electrons
Fermi level: 9.74237

Showing all kpts
                      Up                     Down
 Kpt  Band  Eigenvalues  Occupancy  Eigenvalues  Occupancy
  0   254      8.78883    0.75000     11.22011    0.00000
  0   255      8.80194    0.75000     11.22011    0.00000
  0   256      8.80194    0.75000     11.22137    0.00000
  0   257      8.80306    0.75000     11.25423    0.00000

  1   254      8.80060    0.25000     11.23500    0.00000
  1   255      8.80090    0.25000     11.23500    0.00000
  1   256      8.80090    0.25000     11.29473    0.00000
  1   257      8.80090    0.25000     11.29473    0.00000



Forces in eV/Ang:
  0 Fe   -0.00000   -0.00000    0.00000
  1 Fe    0.00000    0.00000   -0.00000
  2 Fe    0.00000    0.00000   -0.00000
  3 Fe   -0.00000   -0.00000    0.00000
  4 Fe    0.00000   -0.00000    0.00000
  5 Fe    0.00000    0.00000    0.00000
  6 Fe    0.00000   -0.00000    0.00000
  7 Fe   -0.00000   -0.00000    0.00000
  8 Fe    0.00000   -0.00000    0.00000
  9 Fe    0.00000    0.00000   -0.00000
 10 Fe    0.00000   -0.00000    0.00000
 11 Fe   -0.00000   -0.00000    0.00000
 12 Fe   -0.00000    0.00000   -0.00000
 13 Fe   -0.00000    0.00000   -0.00000
 14 Fe   -0.00000    0.00000   -0.00000
 15 Fe   -0.00000    0.00000    0.00000
 16 Fe   -0.00000    0.00000    0.00000
 17 Fe    0.00000    0.00000    0.00000
 18 Fe   -0.00000    0.00000    0.00000
 19 Fe   -0.00000   -0.00000    0.00000
 20 Fe    0.00000    0.00000    0.00000
 21 Fe    0.00000    0.00000    0.00000
 22 Fe    0.00000    0.00000    0.00000
 23 Fe    0.00000    0.00000    0.00000
 24 Fe   -0.00000    0.00000    0.00000
 25 Fe    0.00000   -0.00000    0.00000
 26 Fe    0.00000   -0.00000   -0.00000
 27 Fe   -0.00000   -0.00000    0.00000
 28 Fe   -0.00000    0.00000    0.00000
 29 Fe    0.00000    0.00000    0.00000
 30 Fe    0.00000    0.00000   -0.00000
 31 Fe   -0.00000   -0.00000   -0.00000
 32 Fe    0.00000   -0.00000   -0.00000
 33 Fe    0.00000    0.00000   -0.00000
 34 Fe   -0.00000    0.00000    0.00000
 35 Fe   -0.00000   -0.00000    0.00000
 36 Fe    0.00000   -0.00000    0.00000
 37 Fe   -0.00000    0.00000    0.00000
 38 Fe   -0.00000    0.00000   -0.00000
 39 Fe   -0.00000    0.00000   -0.00000
 40 Fe    0.00000    0.00000    0.00000
 41 Fe   -0.00000   -0.00000    0.00000
 42 Fe    0.00000    0.00000    0.00000
 43 Fe    0.00000    0.00000   -0.00000
 44 Fe   -0.00000    0.00000   -0.00000
 45 Fe    0.00000   -0.00000    0.00000
 46 Fe    0.00000   -0.00000    0.00000
 47 Fe    0.00000   -0.00000   -0.00000
 48 Fe    0.00000   -0.00000   -0.00000
 49 Fe    0.00000   -0.00000   -0.00000
 50 Fe    0.00000   -0.00000   -0.00000
 51 Fe    0.00000   -0.00000   -0.00000
 52 Fe    0.00000   -0.00000   -0.00000
 53 Fe    0.00000    0.00000    0.00000
 54 Fe   -0.00000   -0.00000    0.00000
 55 Fe   -0.00000   -0.00000   -0.00000
 56 Fe    0.00000   -0.00000   -0.00000
 57 Fe   -0.00000   -0.00000   -0.00000
 58 Fe   -0.00000    0.00000    0.00000
 59 Fe   -0.00000   -0.00000   -0.00000
 60 Fe   -0.00000    0.00000   -0.00000
 61 Fe   -0.00000   -0.00000   -0.00000
 62 Fe   -0.00000   -0.00000    0.00000
 63 Fe   -0.00000   -0.00000   -0.00000

Stress tensor:
     0.036473    -0.000000    -0.000000
    -0.000000     0.036473     0.000000
    -0.000000     0.000000     0.036473
Writing to fe_64atoms_relaxed.gpw (mode='')

System changes: positions, cell 

Initialize ...

Fe-setup:
  name: Iron
  id: 37abbd8d6c3c35915a9b583b742da910
  Z: 26
  valence: 8
  core: 18
  charge: 0.0
  file: /home/davidkl/gpaw-setups-0.9.20000/Fe.PBE.gz
  cutoffs: 1.06(comp), 2.06(filt), 2.67(core), lmax=2
  valence states:
                energy  radius
    4s(2.00)    -5.291   1.164
    4p(0.00)    -1.326   1.058
    3d(6.00)    -7.505   1.058
    *s          21.920   1.164
    *p          25.885   1.058
    *d          19.706   1.058

  Using partial waves for Fe as LCAO basis

Reference energy: -2215645.094396

Spin-polarized calculation.
Magnetic moment:  140.800000

Occupation numbers:
  Fermi-Dirac: width=0.0500 eV

Convergence criteria:
  Maximum total energy change: 0.0005 eV / electron
  Maximum integral of absolute density change: 0.0001 electrons
  Maximum integral of absolute eigenstate change: 4e-08 eV^2
  Maximum number of iterations: 333

Symmetries present (total): 48

  ( 1  1  1)  ( 1  1  1)  ( 1  1  1)  ( 1  1  1)  ( 1  1  1)  ( 1  1  1)
  ( 0  0 -1)  ( 0  0 -1)  ( 0 -1  0)  ( 0 -1  0)  (-1  0  0)  (-1  0  0)
  ( 0 -1  0)  (-1  0  0)  ( 0  0 -1)  (-1  0  0)  ( 0  0 -1)  ( 0 -1  0)

  ( 1  0  0)  ( 1  0  0)  ( 1  0  0)  ( 1  0  0)  ( 1  0  0)  ( 1  0  0)
  ( 0  1  0)  ( 0  1  0)  ( 0  0  1)  ( 0  0  1)  (-1 -1 -1)  (-1 -1 -1)
  ( 0  0  1)  (-1 -1 -1)  ( 0  1  0)  (-1 -1 -1)  ( 0  1  0)  ( 0  0  1)

  ( 0  1  0)  ( 0  1  0)  ( 0  1  0)  ( 0  1  0)  ( 0  1  0)  ( 0  1  0)
  ( 1  0  0)  ( 1  0  0)  ( 0  0  1)  ( 0  0  1)  (-1 -1 -1)  (-1 -1 -1)
  ( 0  0  1)  (-1 -1 -1)  ( 1  0  0)  (-1 -1 -1)  ( 1  0  0)  ( 0  0  1)

  ( 0  0  1)  ( 0  0  1)  ( 0  0  1)  ( 0  0  1)  ( 0  0  1)  ( 0  0  1)
  ( 1  0  0)  ( 1  0  0)  ( 0  1  0)  ( 0  1  0)  (-1 -1 -1)  (-1 -1 -1)
  ( 0  1  0)  (-1 -1 -1)  ( 1  0  0)  (-1 -1 -1)  ( 1  0  0)  ( 0  1  0)

  ( 0  0 -1)  ( 0  0 -1)  ( 0  0 -1)  ( 0  0 -1)  ( 0  0 -1)  ( 0  0 -1)
  ( 1  1  1)  ( 1  1  1)  ( 0 -1  0)  ( 0 -1  0)  (-1  0  0)  (-1  0  0)
  ( 0 -1  0)  (-1  0  0)  ( 1  1  1)  (-1  0  0)  ( 1  1  1)  ( 0 -1  0)

  ( 0 -1  0)  ( 0 -1  0)  ( 0 -1  0)  ( 0 -1  0)  ( 0 -1  0)  ( 0 -1  0)
  ( 1  1  1)  ( 1  1  1)  ( 0  0 -1)  ( 0  0 -1)  (-1  0  0)  (-1  0  0)
  ( 0  0 -1)  (-1  0  0)  ( 1  1  1)  (-1  0  0)  ( 1  1  1)  ( 0  0 -1)

  (-1  0  0)  (-1  0  0)  (-1  0  0)  (-1  0  0)  (-1  0  0)  (-1  0  0)
  ( 1  1  1)  ( 1  1  1)  ( 0  0 -1)  ( 0  0 -1)  ( 0 -1  0)  ( 0 -1  0)
  ( 0  0 -1)  ( 0 -1  0)  ( 1  1  1)  ( 0 -1  0)  ( 1  1  1)  ( 0  0 -1)

  (-1 -1 -1)  (-1 -1 -1)  (-1 -1 -1)  (-1 -1 -1)  (-1 -1 -1)  (-1 -1 -1)
  ( 1  0  0)  ( 1  0  0)  ( 0  1  0)  ( 0  1  0)  ( 0  0  1)  ( 0  0  1)
  ( 0  1  0)  ( 0  0  1)  ( 1  0  0)  ( 0  0  1)  ( 1  0  0)  ( 0  1  0)

8 k-points: 2 x 2 x 2 Monkhorst-Pack grid
2 k-points in the irreducible part of the Brillouin zone
       k-points in crystal coordinates                weights
   0:     0.25000000    0.25000000   -0.25000000          6/8
   1:     0.25000000    0.25000000    0.25000000          2/8

Wave functions: Plane wave expansion
  Cutoff energy: 500.000 eV
  Number of coefficients (min, max): 18876, 18941
  Pulay-stress correction: 0.000000 eV/Ang^3 (de/decut=0.000000)
  Using FFTW library
  Eigensolver: None  MatrixOperator buffer_size: default value or 
                              see value of nblock in input file
Diagonalizer layout: Serial LAPACKOrthonormalizer layout: Serial LAPACK 

Davidson(niter=1, smin=None, normalize=True) 

Densities:
  Coarse grid: 42*42*42 grid
  Fine grid: 84*84*84 grid
  Total Charge: 0.000000 

Density mixing:
  Method: sum
  Backend: pulay
  Linear mixing parameter: 0.05
  Mixing with 5 old densities
  Damping of long wave oscillations: 50 

Hamiltonian:
  XC and Coulomb potentials evaluated on a 84*84*84 grid
  Using the PBE Exchange-Correlation functional
 

Memory estimate:
  Process memory now: 1089.30 MiB
  Calculator: 131.56 MiB
    Density: 36.60 MiB
      Arrays: 19.78 MiB
      Localized functions: 11.16 MiB
      Mixer: 5.65 MiB
    Hamiltonian: 14.92 MiB
      Arrays: 14.70 MiB
      XC: 0.00 MiB
      Poisson: 0.00 MiB
      vbar: 0.23 MiB
    Wavefunctions: 80.04 MiB
      Arrays psit_nG: 14.74 MiB
      Eigensolver: 26.86 MiB
      Projections: 0.90 MiB
      Projectors: 2.17 MiB
      Overlap op: 32.34 MiB
      PW-descriptor: 3.04 MiB

Total number of cores used: 32
Parallelization over k-points and spin: 4
Parallelization over states: 8

Number of atoms: 64
Number of atomic orbitals: 576
Adjusting number of bands by +2 to match parallelization
Number of bands in calculation: 408
Bands to converge: occupied states only
Number of valence electrons: 512

... initialized

Initializing position-dependent things.

Density initialized from atomic densities
Creating initial wave functions:
  408 bands from LCAO basis set

                                                       
                                                       
                                                       
                                                       
                                                       
                                                       
                                                       
                                                       
                                                       
                    Fe                                 
                 Fe     Fe                             
               Fe     FFe    Fe                        
            Fe  Fe FFe Fe FFe Fe Fe                    
                 Fe  Fe Fe  Fe Fe                      
               Fe     Fe Fe  Fe     Fe                 
                   Fe  Fe Fe  Fe Fe                    
                    Fe Fe  Fe Fe  Fe                   
                 Fe     Fe  Fe Fe     Fe               
                      Fe Fe  Fe Fe  Fe                 
                    Fe Fe FFe Fe FFe Fe  Fe            
                        Fe    FFe     Fe               
                             Fe     Fe                 
                                 Fe                    
                                                       
                                                       
                                                       
                                                       
                                                       
                                                       
                                                       
                                                       
                                                       

Positions:
   0 Fe     0.000000    0.000000   -0.000000
   1 Fe     1.428213    1.428213   -1.428213
   2 Fe     2.856425    2.856425   -2.856425
   3 Fe     4.284637    4.284637   -4.284637
   4 Fe     1.428213   -1.428213    1.428213
   5 Fe     2.856425    0.000000   -0.000000
   6 Fe     4.284638    1.428212   -1.428212
   7 Fe     5.712850    2.856425   -2.856425
   8 Fe     2.856425   -2.856425    2.856425
   9 Fe     4.284638   -1.428212    1.428212
  10 Fe     5.712850    0.000000   -0.000000
  11 Fe     7.141062    1.428212   -1.428212
  12 Fe     4.284637   -4.284637    4.284637
  13 Fe     5.712850   -2.856425    2.856425
  14 Fe     7.141062   -1.428212    1.428212
  15 Fe     8.569275    0.000000   -0.000000
  16 Fe    -1.428213    1.428213    1.428213
  17 Fe     0.000000    2.856425   -0.000000
  18 Fe     1.428212    4.284638   -1.428212
  19 Fe     2.856425    5.712850   -2.856425
  20 Fe     0.000000    0.000000    2.856425
  21 Fe     1.428213    1.428213    1.428213
  22 Fe     2.856425    2.856425   -0.000000
  23 Fe     4.284638    4.284638   -1.428212
  24 Fe     1.428212   -1.428212    4.284638
  25 Fe     2.856425    0.000000    2.856425
  26 Fe     4.284638    1.428212    1.428212
  27 Fe     5.712850    2.856425   -0.000000
  28 Fe     2.856425   -2.856425    5.712850
  29 Fe     4.284638   -1.428212    4.284638
  30 Fe     5.712850   -0.000000    2.856425
  31 Fe     7.141062    1.428212    1.428212
  32 Fe    -2.856425    2.856425    2.856425
  33 Fe    -1.428212    4.284638    1.428212
  34 Fe     0.000000    5.712850   -0.000000
  35 Fe     1.428212    7.141062   -1.428212
  36 Fe    -1.428212    1.428212    4.284638
  37 Fe     0.000000    2.856425    2.856425
  38 Fe     1.428212    4.284638    1.428212
  39 Fe     2.856425    5.712850   -0.000000
  40 Fe     0.000000    0.000000    5.712850
  41 Fe     1.428212    1.428212    4.284638
  42 Fe     2.856425    2.856425    2.856425
  43 Fe     4.284638    4.284638    1.428212
  44 Fe     1.428212   -1.428212    7.141062
  45 Fe     2.856425   -0.000000    5.712850
  46 Fe     4.284638    1.428212    4.284638
  47 Fe     5.712850    2.856425    2.856425
  48 Fe    -4.284637    4.284637    4.284637
  49 Fe    -2.856425    5.712850    2.856425
  50 Fe    -1.428212    7.141062    1.428212
  51 Fe     0.000000    8.569275   -0.000000
  52 Fe    -2.856425    2.856425    5.712850
  53 Fe    -1.428212    4.284638    4.284638
  54 Fe    -0.000000    5.712850    2.856425
  55 Fe     1.428212    7.141062    1.428212
  56 Fe    -1.428212    1.428212    7.141062
  57 Fe    -0.000000    2.856425    5.712850
  58 Fe     1.428212    4.284638    4.284638
  59 Fe     2.856425    5.712850    2.856425
  60 Fe     0.000000    0.000000    8.569275
  61 Fe     1.428212    1.428212    7.141062
  62 Fe     2.856425    2.856425    5.712850
  63 Fe     4.284637    4.284637    4.284637

Unit cell:
           periodic     x           y           z      points  spacing
  1. axis:    yes   -5.712850    5.712850    5.712850    42     0.1924
  2. axis:    yes    5.712850   -5.712850    5.712850    42     0.1924
  3. axis:    yes    5.712850    5.712850   -5.712850    42     0.1924

  Lengths:   9.894946   9.894946   9.894946
  Angles:  109.471221 109.471221 109.471221

Effective grid spacing dv^(1/3) = 0.2159

                     log10-error:    total        iterations:
           time      wfs    density  energy       fermi  poisson  magmom
iter:   1  12:32:39  +1.22   +inf  -564.916850    36              +135.9380
iter:   2  12:33:08  +0.39   +inf  -569.556827    2               +135.9132
iter:   3  12:33:37  -0.57   +inf  -570.624448    2               +135.9071
iter:   4  12:34:11  -0.54  -1.45  -573.019046    4               +135.7061
iter:   5  12:34:44  -0.53  -1.50  -572.299943    37              +136.0458
iter:   6  12:35:18  -0.48  -1.70  -575.950337    36              +139.2532
iter:   7  12:35:52  -0.15  -1.76  -576.237378    5               +136.7782
iter:   8  12:36:25  -0.95  -2.01  -576.737173    5               +138.2887
iter:   9  12:36:59  -1.84  -2.25  -577.114252    4               +138.5189
iter:  10  12:37:33  -1.97  -2.26  -577.040649    4               +138.2040
iter:  11  12:38:06  -2.16  -2.45  -577.031591    4               +137.7776
iter:  12  12:38:40  -2.92  -3.29  -577.030055    3               +137.7359
iter:  13  12:39:14  -3.02  -3.14  -577.035090    2               +137.7777
iter:  14  12:39:48  -3.53  -3.10  -577.037921    3               +137.7570
iter:  15  12:40:22  -3.47  -3.52  -577.038689    3               +137.7501
iter:  16  12:40:56  -4.08  -3.98  -577.038875    2               +137.7541
iter:  17  12:41:29  -4.14  -4.34  -577.039032    2               +137.7545
iter:  18  12:42:03  -4.54  -4.19  -577.039152    2               +137.7539
iter:  19  12:42:38  -4.60  -4.29  -577.039136    2               +137.7576
iter:  20  12:43:12  -4.93  -4.32  -577.039328    3               +137.7519
iter:  21  12:43:47  -4.99  -4.19  -577.039165    3               +137.7588
iter:  22  12:44:21  -4.79  -4.39  -577.038999    3               +137.7690
iter:  23  12:44:56  -4.22  -4.04  -577.039471    3               +137.7484
iter:  24  12:45:30  -4.86  -4.00  -577.039223    3               +137.7585
iter:  25  12:46:05  -5.72  -4.57  -577.039260    2               +137.7579
iter:  26  12:46:39  -5.68  -4.54  -577.039215    2               +137.7596
iter:  27  12:47:14  -6.20  -4.68  -577.039222    2               +137.7595
iter:  28  12:47:49  -6.29  -4.68  -577.039242    2               +137.7585
iter:  29  12:48:23  -5.82  -4.62  -577.039164    2               +137.7633
iter:  30  12:48:58  -5.88  -4.57  -577.039243    2               +137.7602
iter:  31  12:49:33  -6.61  -4.89  -577.039209    2               +137.7613
iter:  32  12:50:08  -6.76  -4.83  -577.039237    2               +137.7606
iter:  33  12:50:43  -7.22  -4.96  -577.039253    2               +137.7601
iter:  34  12:51:18  -7.13  -5.02  -577.039250    2               +137.7600
iter:  35  12:51:53  -7.54  -5.15  -577.039262    2               +137.7597

Converged after 35 iterations.

Dipole moment: (0.000000, 0.000000, -0.000000) |e|*Ang

Total magnetic moment: 137.759726
Local magnetic moments:
   0 Fe 2.244023
   1 Fe 2.244043
   2 Fe 2.244045
   3 Fe 2.244043
   4 Fe 2.244043
   5 Fe 2.244052
   6 Fe 2.244049
   7 Fe 2.244057
   8 Fe 2.244045
   9 Fe 2.244049
  10 Fe 2.244035
  11 Fe 2.244049
  12 Fe 2.244043
  13 Fe 2.244057
  14 Fe 2.244049
  15 Fe 2.244052
  16 Fe 2.244043
  17 Fe 2.244052
  18 Fe 2.244049
  19 Fe 2.244057
  20 Fe 2.244052
  21 Fe 2.244043
  22 Fe 2.244057
  23 Fe 2.244049
  24 Fe 2.244049
  25 Fe 2.244057
  26 Fe 2.244049
  27 Fe 2.244042
  28 Fe 2.244057
  29 Fe 2.244049
  30 Fe 2.244042
  31 Fe 2.244049
  32 Fe 2.244045
  33 Fe 2.244049
  34 Fe 2.244035
  35 Fe 2.244049
  36 Fe 2.244049
  37 Fe 2.244057
  38 Fe 2.244049
[...]

Positions:
   0 Fe    -0.000000    0.000000   -0.000000
   1 Fe     1.423757    1.423757   -1.423757
   2 Fe     2.847481    2.847481   -2.847481
   3 Fe     4.271206    4.271206   -4.271206
   4 Fe     1.423757   -1.423757    1.423757
   5 Fe     2.847518    0.000000   -0.000000
   6 Fe     4.271236    1.423743   -1.423743
   7 Fe     5.694963    2.847468   -2.847468
   8 Fe     2.847481   -2.847481    2.847481
   9 Fe     4.271236   -1.423743    1.423743
  10 Fe     5.694963    0.000000   -0.000000
  11 Fe     7.118690    1.423743   -1.423743
  12 Fe     4.271206   -4.271206    4.271206
  13 Fe     5.694963   -2.847468    2.847468
  14 Fe     7.118690   -1.423743    1.423743
  15 Fe     8.542408    0.000000   -0.000000
  16 Fe    -1.423757    1.423757    1.423757
  17 Fe    -0.000000    2.847518   -0.000000
  18 Fe     1.423743    4.271236   -1.423743
  19 Fe     2.847468    5.694963   -2.847468
  20 Fe    -0.000000    0.000000    2.847518
  21 Fe     1.423757    1.423757    1.423757
  22 Fe     2.847495    2.847495   -0.000000
  23 Fe     4.271220    4.271220   -1.423727
  24 Fe     1.423743   -1.423743    4.271236
  25 Fe     2.847495    0.000000    2.847495
  26 Fe     4.271236    1.423743    1.423743
  27 Fe     5.694963    2.847481   -0.000000
  28 Fe     2.847468   -2.847468    5.694963
  29 Fe     4.271220   -1.423727    4.271220
  30 Fe     5.694963   -0.000000    2.847481
  31 Fe     7.118690    1.423743    1.423743
  32 Fe    -2.847481    2.847481    2.847481
  33 Fe    -1.423743    4.271236    1.423743
  34 Fe    -0.000000    5.694963   -0.000000
  35 Fe     1.423743    7.118690   -1.423743
  36 Fe    -1.423743    1.423743    4.271236
  37 Fe    -0.000000    2.847495    2.847495
  38 Fe     1.423743    4.271236    1.423743
  39 Fe     2.847481    5.694963   -0.000000
  40 Fe    -0.000000    0.000000    5.694963
  41 Fe     1.423743    1.423743    4.271236
  42 Fe     2.847481    2.847481    2.847481
  43 Fe     4.271220    4.271220    1.423727
  44 Fe     1.423743   -1.423743    7.118690
  45 Fe     2.847481   -0.000000    5.694963
  46 Fe     4.271220    1.423727    4.271220
  47 Fe     5.694963    2.847468    2.847468
  48 Fe    -4.271206    4.271206    4.271206
  49 Fe    -2.847468    5.694963    2.847468
  50 Fe    -1.423743    7.118690    1.423743
  51 Fe    -0.000000    8.542408   -0.000000
  52 Fe    -2.847468    2.847468    5.694963
  53 Fe    -1.423727    4.271220    4.271220
  54 Fe    -0.000000    5.694963    2.847481
  55 Fe     1.423743    7.118690    1.423743
  56 Fe    -1.423743    1.423743    7.118690
  57 Fe    -0.000000    2.847481    5.694963
  58 Fe     1.423727    4.271220    4.271220
  59 Fe     2.847468    5.694963    2.847468
  60 Fe    -0.000000    0.000000    8.542408
  61 Fe     1.423743    1.423743    7.118690
  62 Fe     2.847468    2.847468    5.694963
  63 Fe     4.271206    4.271206    4.271206

Unit cell:
           periodic     x           y           z      points  spacing
  1. axis:    yes   -5.694963    5.694963    5.694963    42     0.1918
  2. axis:    yes    5.694963   -5.694963    5.694963    42     0.1918
  3. axis:    yes    5.694963    5.694963   -5.694963    42     0.1918

  Lengths:   9.863965   9.863965   9.863965
  Angles:  109.471221 109.471221 109.471221

Effective grid spacing dv^(1/3) = 0.2152

                     log10-error:    total        iterations:
           time      wfs    density  energy       fermi  poisson  magmom
iter:   1  18:16:36  +1.23   +inf  -565.171690    36              +135.8784
iter:   2  18:17:23  +0.40   +inf  -569.865567    2               +135.8473
iter:   3  18:18:10  -0.56   +inf  -570.949173    2               +135.8390
iter:   4  18:19:01  -0.53  -1.45  -573.286621    3               +135.5385
iter:   5  18:19:53  -0.51  -1.49  -572.474240    37              +135.9411
iter:   6  18:20:44  -0.46  -1.70  -576.166744    37              +138.8300
iter:   7  18:21:36  -0.14  -1.76  -576.407334    5               +136.5328
iter:   8  18:22:28  -1.09  -2.03  -577.009621    5               +137.8168
iter:   9  18:23:19  -1.99  -2.40  -577.177668    3               +137.6190
iter:  10  18:24:11  -2.53  -2.73  -577.197003    3               +137.7022
iter:  11  18:25:03  -2.09  -2.67  -577.196446    4               +137.5603
iter:  12  18:25:54  -3.08  -3.06  -577.198636    3               +137.5719
iter:  13  18:26:46  -3.57  -3.37  -577.199016    3               +137.5893
iter:  14  18:27:38  -3.57  -3.70  -577.199226    3               +137.6003
iter:  15  18:28:29  -4.21  -3.94  -577.199521    3               +137.6055
iter:  16  18:29:21  -4.23  -3.89  -577.199706    2               +137.6070
iter:  17  18:30:13  -4.57  -3.87  -577.199912    3               +137.6002
iter:  18  18:31:04  -4.83  -4.02  -577.199932    2               +137.5984
iter:  19  18:31:56  -4.12  -4.13  -577.200422    3               +137.5848
iter:  20  18:32:47  -4.22  -3.69  -577.199925    3               +137.5984
iter:  21  18:33:39  -5.60  -4.36  -577.199907    2               +137.5993
iter:  22  18:34:31  -5.47  -4.52  -577.199891    2               +137.6013
iter:  23  18:35:22  -5.92  -4.61  -577.199900    2               +137.6026
iter:  24  18:36:14  -6.18  -4.71  -577.199893    2               +137.6025
iter:  25  18:37:06  -6.45  -4.71  -577.199896    2               +137.6029
iter:  26  18:37:58  -6.57  -4.77  -577.199887    2               +137.6032
iter:  27  18:38:49  -6.91  -5.19  -577.199880    2               +137.6036
iter:  28  18:39:41  -7.17  -5.70  -577.199881    1               +137.6036
iter:  29  18:40:33  -7.50  -5.69  -577.199880    2               +137.6037

Converged after 29 iterations.

Dipole moment: (-0.000000, 0.000000, 0.000000) |e|*Ang

Total magnetic moment: 137.603680
Local magnetic moments:
   0 Fe 2.239684
   1 Fe 2.239694
   2 Fe 2.239653
   3 Fe 2.239694
   4 Fe 2.239694
   5 Fe 2.239692
   6 Fe 2.239657
   7 Fe 2.239667
   8 Fe 2.239653
   9 Fe 2.239657
  10 Fe 2.239642
  11 Fe 2.239657
  12 Fe 2.239694
  13 Fe 2.239667
  14 Fe 2.239657
  15 Fe 2.239692
  16 Fe 2.239694
  17 Fe 2.239692
  18 Fe 2.239657
  19 Fe 2.239667
  20 Fe 2.239692
  21 Fe 2.239694
  22 Fe 2.239667
  23 Fe 2.239657
  24 Fe 2.239657
  25 Fe 2.239667
  26 Fe 2.239657
  27 Fe 2.239648
  28 Fe 2.239667
  29 Fe 2.239657
  30 Fe 2.239648
  31 Fe 2.239657
  32 Fe 2.239653
  33 Fe 2.239657
  34 Fe 2.239642
  35 Fe 2.239657
  36 Fe 2.239657
  37 Fe 2.239667
  38 Fe 2.239657
  39 Fe 2.239648
  40 Fe 2.239642
  41 Fe 2.239657
  42 Fe 2.239653
  43 Fe 2.239657
  44 Fe 2.239657
  45 Fe 2.239648
  46 Fe 2.239657
  47 Fe 2.239667
  48 Fe 2.239694
  49 Fe 2.239667
  50 Fe 2.239657
  51 Fe 2.239692
  52 Fe 2.239667
  53 Fe 2.239657
  54 Fe 2.239648
  55 Fe 2.239657
  56 Fe 2.239657
  57 Fe 2.239648
  58 Fe 2.239657
  59 Fe 2.239667
  60 Fe 2.239692
  61 Fe 2.239657
  62 Fe 2.239667
  63 Fe 2.239694

Energy contributions relative to reference atoms: (reference = -2215645.094396)

Kinetic:       +421.193126
Potential:     -357.161160
External:        +0.000000
XC:            -647.327998
Entropy (-ST):   -0.369736
Local:           +6.281020
--------------------------
Free energy:   -577.384748
Extrapolated:  -577.199880

Spin contamination: 4.702999 electrons
Fermi level: 9.91538

Showing all kpts
                      Up                     Down
 Kpt  Band  Eigenvalues  Occupancy  Eigenvalues  Occupancy
  0   254      8.94617    0.75000     11.37587    0.00000
  0   255      8.96046    0.75000     11.37587    0.00000
  0   256      8.96049    0.75000     11.37712    0.00000
  0   257      8.96157    0.75000     11.41748    0.00000

  1   254      8.96601    0.25000     11.39183    0.00000
  1   255      8.96630    0.25000     11.39183    0.00000
  1   256      8.96630    0.25000     11.45022    0.00000
  1   257      8.96631    0.25000     11.45022    0.00000


System changes: positions, cell 

Initialize ...

Fe-setup:
  name: Iron
  id: 37abbd8d6c3c35915a9b583b742da910
  Z: 26
  valence: 8
  core: 18
  charge: 0.0
  file: /home/davidkl/gpaw-setups-0.9.20000/Fe.PBE.gz
  cutoffs: 1.06(comp), 2.06(filt), 2.67(core), lmax=2
  valence states:
                energy  radius
    4s(2.00)    -5.291   1.164
    4p(0.00)    -1.326   1.058
    3d(6.00)    -7.505   1.058
    *s          21.920   1.164
    *p          25.885   1.058
    *d          19.706   1.058

  Using partial waves for Fe as LCAO basis

Reference energy: -2215645.094396

Spin-polarized calculation.
Magnetic moment:  140.800000

Occupation numbers:
  Fermi-Dirac: width=0.0500 eV

Convergence criteria:
  Maximum total energy change: 0.0005 eV / electron
  Maximum integral of absolute density change: 0.0001 electrons
  Maximum integral of absolute eigenstate change: 4e-08 eV^2
  Maximum number of iterations: 333

Symmetries present (total): 48

  ( 1  1  1)  ( 1  1  1)  ( 1  1  1)  ( 1  1  1)  ( 1  1  1)  ( 1  1  1)
  ( 0  0 -1)  ( 0  0 -1)  ( 0 -1  0)  ( 0 -1  0)  (-1  0  0)  (-1  0  0)
  ( 0 -1  0)  (-1  0  0)  ( 0  0 -1)  (-1  0  0)  ( 0  0 -1)  ( 0 -1  0)

  ( 1  0  0)  ( 1  0  0)  ( 1  0  0)  ( 1  0  0)  ( 1  0  0)  ( 1  0  0)
  ( 0  1  0)  ( 0  1  0)  ( 0  0  1)  ( 0  0  1)  (-1 -1 -1)  (-1 -1 -1)
  ( 0  0  1)  (-1 -1 -1)  ( 0  1  0)  (-1 -1 -1)  ( 0  1  0)  ( 0  0  1)

  ( 0  1  0)  ( 0  1  0)  ( 0  1  0)  ( 0  1  0)  ( 0  1  0)  ( 0  1  0)
  ( 1  0  0)  ( 1  0  0)  ( 0  0  1)  ( 0  0  1)  (-1 -1 -1)  (-1 -1 -1)
  ( 0  0  1)  (-1 -1 -1)  ( 1  0  0)  (-1 -1 -1)  ( 1  0  0)  ( 0  0  1)

  ( 0  0  1)  ( 0  0  1)  ( 0  0  1)  ( 0  0  1)  ( 0  0  1)  ( 0  0  1)
  ( 1  0  0)  ( 1  0  0)  ( 0  1  0)  ( 0  1  0)  (-1 -1 -1)  (-1 -1 -1)
  ( 0  1  0)  (-1 -1 -1)  ( 1  0  0)  (-1 -1 -1)  ( 1  0  0)  ( 0  1  0)

  ( 0  0 -1)  ( 0  0 -1)  ( 0  0 -1)  ( 0  0 -1)  ( 0  0 -1)  ( 0  0 -1)
  ( 1  1  1)  ( 1  1  1)  ( 0 -1  0)  ( 0 -1  0)  (-1  0  0)  (-1  0  0)
  ( 0 -1  0)  (-1  0  0)  ( 1  1  1)  (-1  0  0)  ( 1  1  1)  ( 0 -1  0)

  ( 0 -1  0)  ( 0 -1  0)  ( 0 -1  0)  ( 0 -1  0)  ( 0 -1  0)  ( 0 -1  0)
  ( 1  1  1)  ( 1  1  1)  ( 0  0 -1)  ( 0  0 -1)  (-1  0  0)  (-1  0  0)
  ( 0  0 -1)  (-1  0  0)  ( 1  1  1)  (-1  0  0)  ( 1  1  1)  ( 0  0 -1)

  (-1  0  0)  (-1  0  0)  (-1  0  0)  (-1  0  0)  (-1  0  0)  (-1  0  0)
  ( 1  1  1)  ( 1  1  1)  ( 0  0 -1)  ( 0  0 -1)  ( 0 -1  0)  ( 0 -1  0)
  ( 0  0 -1)  ( 0 -1  0)  ( 1  1  1)  ( 0 -1  0)  ( 1  1  1)  ( 0  0 -1)

  (-1 -1 -1)  (-1 -1 -1)  (-1 -1 -1)  (-1 -1 -1)  (-1 -1 -1)  (-1 -1 -1)
  ( 1  0  0)  ( 1  0  0)  ( 0  1  0)  ( 0  1  0)  ( 0  0  1)  ( 0  0  1)
  ( 0  1  0)  ( 0  0  1)  ( 1  0  0)  ( 0  0  1)  ( 1  0  0)  ( 0  1  0)

8 k-points: 2 x 2 x 2 Monkhorst-Pack grid
2 k-points in the irreducible part of the Brillouin zone
       k-points in crystal coordinates                weights
   0:     0.25000000    0.25000000   -0.25000000          6/8
   1:     0.25000000    0.25000000    0.25000000          2/8

Wave functions: Plane wave expansion
  Cutoff energy: 500.000 eV
  Number of coefficients (min, max): 18780, 18825
  Pulay-stress correction: 0.000000 eV/Ang^3 (de/decut=0.000000)
  Using FFTW library
  Eigensolver: None  MatrixOperator buffer_size: default value or 
                              see value of nblock in input file
Diagonalizer layout: Serial LAPACKOrthonormalizer layout: Serial LAPACK 

Davidson(niter=1, smin=None, normalize=True) 

Densities:
  Coarse grid: 42*42*42 grid
  Fine grid: 84*84*84 grid
  Total Charge: 0.000000 

Density mixing:
  Method: sum
  Backend: pulay
  Linear mixing parameter: 0.05
  Mixing with 5 old densities
  Damping of long wave oscillations: 50 

Hamiltonian:
  XC and Coulomb potentials evaluated on a 84*84*84 grid
  Using the PBE Exchange-Correlation functional
 

Memory estimate:
  Process memory now: 1284.90 MiB
  Calculator: 131.27 MiB
    Density: 36.60 MiB
      Arrays: 19.78 MiB
      Localized functions: 11.16 MiB
      Mixer: 5.65 MiB
    Hamiltonian: 14.92 MiB
      Arrays: 14.70 MiB
      XC: 0.00 MiB
      Poisson: 0.00 MiB
      vbar: 0.23 MiB
    Wavefunctions: 79.75 MiB
      Arrays psit_nG: 14.65 MiB
      Eigensolver: 26.85 MiB
      Projections: 0.90 MiB
      Projectors: 2.15 MiB
      Overlap op: 32.16 MiB
      PW-descriptor: 3.04 MiB

Total number of cores used: 32
Parallelization over k-points and spin: 4
Parallelization over states: 8

Number of atoms: 64
Number of atomic orbitals: 576
Adjusting number of bands by +2 to match parallelization
Number of bands in calculation: 408
Bands to converge: occupied states only
Number of valence electrons: 512

... initialized

Initializing position-dependent things.

Density initialized from atomic densities
Creating initial wave functions:
  408 bands from LCAO basis set

                                                       
                                                       
                                                       
                                                       
                                                       
                                                       
                                                       
                                                       
                                                       
                    Fe                                 
                 Fe     Fe                             
               Fe     FFe    Fe                        
            Fe  Fe FFe Fe FFe Fe Fe                    
                 Fe  Fe Fe  Fe Fe                      
               Fe     Fe Fe  Fe     Fe                 
                   Fe  Fe Fe  Fe Fe                    
                    Fe Fe  Fe Fe  Fe                   
                 Fe     Fe  Fe Fe     Fe               
                      Fe Fe  Fe Fe  Fe                 
                    Fe Fe FFe Fe FFe Fe  Fe            
                        Fe    FFe     Fe               
                             Fe     Fe                 
                                 Fe                    
                                                       
                                                       
                                                       
                                                       
                                                       
                                                       
                                                       
                                                       
                                                       

Positions:
   0 Fe    -0.000000    0.000000   -0.000000
   1 Fe     1.423757    1.423757   -1.423757
   2 Fe     2.847481    2.847481   -2.847481
   3 Fe     4.271206    4.271206   -4.271206
   4 Fe     1.423757   -1.423757    1.423757
   5 Fe     2.847518    0.000000   -0.000000
   6 Fe     4.271236    1.423743   -1.423743
   7 Fe     5.694963    2.847468   -2.847468
   8 Fe     2.847481   -2.847481    2.847481
   9 Fe     4.271236   -1.423743    1.423743
  10 Fe     5.694963    0.000000   -0.000000
  11 Fe     7.118690    1.423743   -1.423743
  12 Fe     4.271206   -4.271206    4.271206
  13 Fe     5.694963   -2.847468    2.847468
  14 Fe     7.118690   -1.423743    1.423743
  15 Fe     8.542408    0.000000   -0.000000
  16 Fe    -1.423757    1.423757    1.423757
  17 Fe    -0.000000    2.847518   -0.000000
  18 Fe     1.423743    4.271236   -1.423743
  19 Fe     2.847468    5.694963   -2.847468
  20 Fe    -0.000000    0.000000    2.847518
  21 Fe     1.423757    1.423757    1.423757
  22 Fe     2.847495    2.847495   -0.000000
  23 Fe     4.271220    4.271220   -1.423727
  24 Fe     1.423743   -1.423743    4.271236
  25 Fe     2.847495    0.000000    2.847495
  26 Fe     4.271236    1.423743    1.423743
  27 Fe     5.694963    2.847481   -0.000000
  28 Fe     2.847468   -2.847468    5.694963
  29 Fe     4.271220   -1.423727    4.271220
  30 Fe     5.694963   -0.000000    2.847481
  31 Fe     7.118690    1.423743    1.423743
  32 Fe    -2.847481    2.847481    2.847481
  33 Fe    -1.423743    4.271236    1.423743
  34 Fe    -0.000000    5.694963   -0.000000
  35 Fe     1.423743    7.118690   -1.423743
  36 Fe    -1.423743    1.423743    4.271236
  37 Fe    -0.000000    2.847495    2.847495
  38 Fe     1.423743    4.271236    1.423743
  39 Fe     2.847481    5.694963   -0.000000
  40 Fe    -0.000000    0.000000    5.694963
  41 Fe     1.423743    1.423743    4.271236
  42 Fe     2.847481    2.847481    2.847481
  43 Fe     4.271220    4.271220    1.423727
  44 Fe     1.423743   -1.423743    7.118690
  45 Fe     2.847481   -0.000000    5.694963
  46 Fe     4.271220    1.423727    4.271220
  47 Fe     5.694963    2.847468    2.847468
  48 Fe    -4.271206    4.271206    4.271206
  49 Fe    -2.847468    5.694963    2.847468
  50 Fe    -1.423743    7.118690    1.423743
  51 Fe    -0.000000    8.542408   -0.000000
  52 Fe    -2.847468    2.847468    5.694963
  53 Fe    -1.423727    4.271220    4.271220
  54 Fe    -0.000000    5.694963    2.847481
  55 Fe     1.423743    7.118690    1.423743
  56 Fe    -1.423743    1.423743    7.118690
  57 Fe    -0.000000    2.847481    5.694963
  58 Fe     1.423727    4.271220    4.271220
  59 Fe     2.847468    5.694963    2.847468
  60 Fe    -0.000000    0.000000    8.542408
  61 Fe     1.423743    1.423743    7.118690
  62 Fe     2.847468    2.847468    5.694963
  63 Fe     4.271206    4.271206    4.271206

Unit cell:
           periodic     x           y           z      points  spacing
  1. axis:    yes   -5.694963    5.694963    5.694963    42     0.1918
  2. axis:    yes    5.694963   -5.694963    5.694963    42     0.1918
  3. axis:    yes    5.694963    5.694963   -5.694963    42     0.1918

  Lengths:   9.863965   9.863965   9.863965
  Angles:  109.471221 109.471221 109.471221

Effective grid spacing dv^(1/3) = 0.2152

                     log10-error:    total        iterations:
           time      wfs    density  energy       fermi  poisson  magmom
iter:   1  18:42:20  +1.23   +inf  -565.171690    36              +135.8784
iter:   2  18:43:07  +0.40   +inf  -569.865567    2               +135.8473
iter:   3  18:43:55  -0.56   +inf  -570.949173    2               +135.8390
iter:   4  18:44:47  -0.53  -1.45  -573.286621    3               +135.5385
iter:   5  18:45:39  -0.51  -1.49  -572.474240    37              +135.9411
iter:   6  18:46:32  -0.46  -1.70  -576.166744    37              +138.8300
iter:   7  18:47:24  -0.14  -1.76  -576.407334    5               +136.5328
iter:   8  18:48:16  -1.09  -2.03  -577.009632    5               +137.8168
iter:   9  18:49:09  -1.99  -2.40  -577.177665    3               +137.6190
iter:  10  18:50:01  -2.53  -2.73  -577.196983    3               +137.7020
iter:  11  18:50:54  -2.09  -2.67  -577.196441    4               +137.5604
iter:  12  18:51:46  -3.08  -3.06  -577.198635    3               +137.5719
iter:  13  18:52:39  -3.57  -3.37  -577.199016    3               +137.5893
iter:  14  18:53:31  -3.57  -3.70  -577.199228    3               +137.6003
iter:  15  18:54:23  -4.21  -3.94  -577.199521    3               +137.6054
iter:  16  18:55:16  -4.23  -3.90  -577.199699    2               +137.6073
iter:  17  18:56:08  -4.54  -3.86  -577.199910    3               +137.6001
iter:  18  18:57:00  -4.84  -4.03  -577.199934    2               +137.5985
iter:  19  18:57:53  -4.01  -4.13  -577.200542    3               +137.5827
iter:  20  18:58:45  -4.11  -3.63  -577.199935    3               +137.5981
iter:  21  18:59:37  -5.60  -4.32  -577.199916    2               +137.5990
iter:  22  19:00:30  -5.44  -4.49  -577.199888    2               +137.6017
iter:  23  19:01:22  -5.94  -4.60  -577.199899    2               +137.6026
iter:  24  19:02:15  -6.15  -4.79  -577.199888    2               +137.6026
iter:  25  19:03:07  -6.47  -4.75  -577.199892    2               +137.6031
iter:  26  19:04:00  -6.68  -4.85  -577.199892    2               +137.6031
iter:  27  19:04:52  -6.99  -5.17  -577.199883    2               +137.6034
