
  ___ ___ ___ _ _ _  
 |   |   |_  | | | | 
 | | | | | . | | | | 
 |__ |  _|___|_____|  1.4.0
 |___|_|             

User:   rasmus@AsusN550
Date:   Wed Dec 12 14:35:13 2018
Arch:   x86_64
Pid:    14242
Python: 3.6.3
gpaw:   /home/rasmus/anaconda3/lib/python3.6/site-packages/gpaw
_gpaw:  /home/rasmus/anaconda3/lib/python3.6/site-packages/
        _gpaw.cpython-36m-x86_64-linux-gnu.so
ase:    /home/rasmus/anaconda3/lib/python3.6/site-packages/ase (version 3.17.0)
numpy:  /home/rasmus/.local/lib/python3.6/site-packages/numpy (version 1.15.1)
scipy:  /home/rasmus/.local/lib/python3.6/site-packages/scipy (version 1.1.0)
units:  Angstrom and eV
cores:  1

Input parameters:
  kpts: [3 3 3]
  mode: {ecut: 500.0,
         name: pw}
  nbands: -50
  occupations: {name: fermi-dirac,
                width: 0.1}
  spinpol: True
  xc: PBE

System changes: positions, numbers, cell, pbc, initial_charges, initial_magmoms 

Initialize ...

Fe-setup:
  name: Iron
  id: 37abbd8d6c3c35915a9b583b742da910
  Z: 26
  valence: 8
  core: 18
  charge: 0.0
  file: /usr/share/gpaw-setups/Fe.PBE.gz
  cutoffs: 1.06(comp), 2.06(filt), 2.67(core), lmax=2
  valence states:
                energy  radius
    4s(2.00)    -5.291   1.164
    4p(0.00)    -1.326   1.058
    3d(6.00)    -7.505   1.058
    *s          21.920   1.164
    *p          25.885   1.058
    *d          19.706   1.058

  Using partial waves for Fe as LCAO basis

Si-setup:
  name: Silicon
  id: ee77bee481871cc2cb65ac61239ccafa
  Z: 14
  valence: 4
  core: 10
  charge: 0.0
  file: /usr/share/gpaw-setups/Si.PBE.gz
  cutoffs: 1.06(comp), 1.86(filt), 2.06(core), lmax=2
  valence states:
                energy  radius
    3s(2.00)   -10.812   1.058
    3p(2.00)    -4.081   1.058
    *s          16.399   1.058
    *p          23.130   1.058
    *d           0.000   1.058

  Using partial waves for Si as LCAO basis

Reference energy: -42505.798850

Spin-polarized calculation.
Magnetic moment: 2.200000

Occupation numbers:
  Fermi-Dirac: width=0.1000 eV

Convergence criteria:
  Maximum total energy change: 0.0005 eV / electron
  Maximum integral of absolute density change: 0.0001 electrons
  Maximum integral of absolute eigenstate change: 4e-08 eV^2
  Maximum number of iterations: 333

Symmetries present (total): 2

  ( 1  0  0)  ( 1  0  0)
  ( 0  1  0)  ( 0  0  1)
  ( 0  0  1)  ( 0  1  0)

27 k-points: 3 x 3 x 3 Monkhorst-Pack grid
10 k-points in the irreducible part of the Brillouin zone
       k-points in crystal coordinates                weights
   0:     0.00000000    0.00000000    0.00000000          1/27
   1:     0.00000000    0.33333333   -0.33333333          2/27
   2:     0.00000000    0.33333333    0.00000000          4/27
   3:     0.00000000    0.33333333    0.33333333          2/27
   4:     0.33333333   -0.33333333   -0.33333333          2/27
   5:     0.33333333    0.00000000   -0.33333333          4/27
   6:     0.33333333    0.00000000    0.00000000          2/27
   7:     0.33333333    0.33333333   -0.33333333          4/27
   8:     0.33333333    0.33333333    0.00000000          4/27
   9:     0.33333333    0.33333333    0.33333333          2/27

Wave functions: Plane wave expansion
  Cutoff energy: 500.000 eV
  Number of coefficients (min, max): 586, 600
  Pulay-stress correction: 0.000000 eV/Ang^3 (de/decut=0.000000)
  Using FFTW library
  ScaLapack parameters: grid=1x1, blocksize=None 

Eigensolver
   Davidson(niter=1, smin=None, normalize=True) 

Densities:
  Coarse grid: 20*10*10 grid
  Fine grid: 40*20*20 grid
  Total Charge: 0.000000 

Density mixing:
  Method: sum
  Backend: pulay
  Linear mixing parameter: 0.05
  Mixing with 5 old densities
  Damping of long wave oscillations: 50 

Hamiltonian:
  XC and Coulomb potentials evaluated on a 40*20*20 grid
  Using the PBE Exchange-Correlation functional
 

Memory estimate:
  Process memory now: 71.54 MiB
  Calculator: 14.48 MiB
    Density: 0.99 MiB
      Arrays: 0.53 MiB
      Localized functions: 0.30 MiB
      Mixer: 0.15 MiB
    Hamiltonian: 0.40 MiB
      Arrays: 0.40 MiB
      XC: 0.00 MiB
      Poisson: 0.00 MiB
      vbar: 0.01 MiB
    Wavefunctions: 13.09 MiB
      Arrays psit_nG: 10.44 MiB
      Eigensolver: 1.07 MiB
      Projections: 0.54 MiB
      Projectors: 0.90 MiB
      PW-descriptor: 0.14 MiB

Total number of cores used: 1

Number of atoms: 2
Number of atomic orbitals: 13
Number of bands in calculation: 57
Bands to converge: occupied states only
Number of valence electrons: 12

... initialized

Initializing position-dependent things.

Density initialized from atomic densities
Creating initial wave functions:
  13 bands from LCAO basis set
  44 bands from random numbers

                    
                    
                    
        Fe          
                    
                    
          Si        
                    
                    
                    

Positions:
   0 Fe    -1.423343    1.288348    1.288348    ( 0.0000,  0.0000,  2.2000)
   1 Si     0.000000    0.000003    0.000003    ( 0.0000,  0.0000,  0.0000)

Unit cell:
           periodic     x           y           z      points  spacing
  1. axis:    yes   -2.846686    2.576691    2.576691    20     0.1822
  2. axis:    yes    1.423435   -1.596081    1.596175    10     0.2009
  3. axis:    yes    1.423435    1.596175   -1.596081    10     0.2009

  Lengths:   4.624099   2.668598   2.668598
  Angles:  115.528811 109.168853 109.168853

Effective grid spacing dv^(1/3) = 0.2271

                     log10-error:    total        iterations:
           time      wfs    density  energy       fermi  poisson  magmom
iter:   1  14:35:19  +4.97   +inf   -14.600311    3               +1.3350
iter:   2  14:35:22  -0.23   +inf   -14.655873    3               +1.3326
iter:   3  14:35:24  -1.48   +inf   -14.658354    2               +1.3325
iter:   4  14:35:27  -2.10  -1.18   -14.672400    4               +1.2881
iter:   5  14:35:29  -2.11  -1.21   -14.702340    31              +1.3285
iter:   6  14:35:32  -1.57  -1.39   -14.652584    31              +1.2835
iter:   7  14:35:35  -2.44  -1.55   -14.672484    3               +1.2806
iter:   8  14:35:37  -2.48  -1.99   -14.676841    4               +1.2729
iter:   9  14:35:40  -3.75  -2.48   -14.678196    2               +1.2706
iter:  10  14:35:43  -4.16  -2.67   -14.679776    3               +1.2663
iter:  11  14:35:46  -5.14  -3.60   -14.679755    2               +1.2664
iter:  12  14:35:49  -6.61  -3.78   -14.679768    2               +1.2663
iter:  13  14:35:51  -5.29  -3.79   -14.679955    3               +1.2651
iter:  14  14:35:54  -6.28  -4.19   -14.679954    2               +1.2651
iter:  15  14:35:57  -7.02  -4.26   -14.679943    2               +1.2651
Timing:                              incl.     excl.
-----------------------------------------------------------
Hamiltonian:                         0.284     0.000   0.0% |
 Atomic:                             0.255     0.009   0.0% |
  XC Correction:                     0.247     0.247   0.5% |
 Calculate atomic Hamiltonians:      0.001     0.001   0.0% |
 Communicate:                        0.000     0.000   0.0% |
 Initialize Hamiltonian:             0.000     0.000   0.0% |
 Poisson:                            0.000     0.000   0.0% |
 XC 3D grid:                         0.027     0.027   0.1% |
LCAO initialization:                 0.624     0.134   0.3% |
 LCAO eigensolver:                   0.261     0.001   0.0% |
  Calculate projections:             0.000     0.000   0.0% |
  DenseAtomicCorrection:             0.002     0.002   0.0% |
  Distribute overlap matrix:         0.000     0.000   0.0% |
  Orbital Layouts:                   0.002     0.002   0.0% |
  Potential matrix:                  0.194     0.194   0.4% |
  Sum over cells:                    0.062     0.062   0.1% |
 LCAO to grid:                       0.098     0.098   0.2% |
 Set positions (LCAO WFS):           0.131     0.000   0.0% |
  Basic WFS set positions:           0.000     0.000   0.0% |
  Basis functions set positions:     0.000     0.000   0.0% |
  TCI: Calculate S, T, P:            0.131     0.131   0.3% |
PWDescriptor:                        0.003     0.003   0.0% |
SCF-cycle:                          46.105     0.212   0.4% |
 Davidson:                          37.851     8.569  18.0% |------|
  Subspace diag:                    11.187     0.041   0.1% |
   calc_h_matrix:                    6.311     6.311  13.2% |----|
   diagonalize:                      1.210     1.210   2.5% ||
   rotate_psi:                       3.625     3.625   7.6% |--|
  calc. matrices:                   10.350    10.350  21.7% |--------|
  diagonalize:                       4.075     4.075   8.6% |--|
  rotate_psi:                        3.671     3.671   7.7% |--|
 Density:                            1.711     0.000   0.0% |
  Atomic density matrices:           0.021     0.021   0.0% |
  Mix:                               0.032     0.032   0.1% |
  Multipole moments:                 0.001     0.001   0.0% |
  Pseudo density:                    1.656     1.649   3.5% ||
   Symmetrize density:               0.008     0.008   0.0% |
 Hamiltonian:                        4.103     0.004   0.0% |
  Atomic:                            3.631     0.122   0.3% |
   XC Correction:                    3.509     3.509   7.4% |--|
  Calculate atomic Hamiltonians:     0.014     0.014   0.0% |
  Communicate:                       0.000     0.000   0.0% |
  Poisson:                           0.001     0.001   0.0% |
  XC 3D grid:                        0.452     0.452   0.9% |
 Orthonormalize:                     2.229     0.002   0.0% |
  calc_s_matrix:                     0.078     0.078   0.2% |
  inverse-cholesky:                  1.952     1.952   4.1% |-|
  projections:                       0.089     0.089   0.2% |
  rotate_psi_s:                      0.107     0.107   0.2% |
Set symmetry:                        0.002     0.002   0.0% |
Other:                               0.622     0.622   1.3% ||
-----------------------------------------------------------
Total:                                        47.640 100.0%

Date: Wed Dec 12 14:36:00 2018
