
  ___ ___ ___ _ _ _  
 |   |   |_  | | | | 
 | | | | | . | | | | 
 |__ |  _|___|_____|  1.3.1b1
 |___|_|             

User:   rasmusat@c25-7.local
Date:   Thu Nov 29 16:58:51 2018
Arch:   x86_64
Pid:    36102
Python: 2.7.12
gpaw:   /home/davidkl/.local/lib/python2.7/site-packages/gpaw
_gpaw:  /home/davidkl/.local/bin/gpaw-python
ase:    /home/davidkl/.local/lib/python2.7/site-packages/ase (version 3.16.2)
numpy:  /global/hds/software/cpu/eb3/Python/2.7.12-intel-2016b/lib/python2.7/site-packages/numpy-1.11.1-py2.7-linux-x86_64.egg/numpy (version 1.11.1)
scipy:  /global/hds/software/cpu/eb3/Python/2.7.12-intel-2016b/lib/python2.7/site-packages/scipy (version 0.17.1)
units:  Angstrom and eV
cores:  32

Input parameters:
  kpts: [10 10 10]
  mode: {ecut: 500.0,
         name: pw}
  nbands: -25
  occupations: {name: fermi-dirac,
                width: 0.1}
  spinpol: True
  xc: PBE

System changes: positions, numbers, cell, pbc, initial_charges, initial_magmoms 

Initialize ...

Fe-setup:
  name: Iron
  id: 37abbd8d6c3c35915a9b583b742da910
  Z: 26
  valence: 8
  core: 18
  charge: 0.0
  file: /home/davidkl/gpaw-setups-0.9.20000/Fe.PBE.gz
  cutoffs: 1.06(comp), 2.06(filt), 2.67(core), lmax=2
  valence states:
                energy  radius
    4s(2.00)    -5.291   1.164
    4p(0.00)    -1.326   1.058
    3d(6.00)    -7.505   1.058
    *s          21.920   1.164
    *p          25.885   1.058
    *d          19.706   1.058

  Using partial waves for Fe as LCAO basis

Reference energy: -276955.636799

Spin-polarized calculation.
Magnetic moment:  17.600000

Occupation numbers:
  Fermi-Dirac: width=0.1000 eV

Convergence criteria:
  Maximum total energy change: 0.0005 eV / electron
  Maximum integral of absolute density change: 0.0001 electrons
  Maximum integral of absolute eigenstate change: 4e-08 eV^2
  Maximum number of iterations: 333

Symmetries present (total): 6

  ( 1  0  0)  ( 1  0  0)  ( 0  1  0)  ( 0  1  0)  ( 0  0  1)  ( 0  0  1)
  ( 0  1  0)  ( 0  0  1)  ( 1  0  0)  ( 0  0  1)  ( 1  0  0)  ( 0  1  0)
  ( 0  0  1)  ( 0  1  0)  ( 0  0  1)  ( 1  0  0)  ( 0  1  0)  ( 1  0  0)

1000 k-points: 10 x 10 x 10 Monkhorst-Pack grid
110 k-points in the irreducible part of the Brillouin zone
       k-points in crystal coordinates                weights
   0:     0.05000000    0.05000000   -0.05000000          6/1000
   1:     0.05000000    0.05000000    0.05000000          2/1000
   2:     0.15000000   -0.05000000   -0.05000000          6/1000
   3:     0.15000000    0.05000000   -0.15000000         12/1000
   4:     0.15000000    0.05000000   -0.05000000         12/1000
   5:     0.15000000    0.05000000    0.05000000          6/1000
   6:     0.15000000    0.15000000   -0.15000000          6/1000
   7:     0.15000000    0.15000000   -0.05000000          6/1000
   8:     0.15000000    0.15000000    0.05000000          6/1000
   9:     0.15000000    0.15000000    0.15000000          2/1000
          ...
 109:     0.45000000    0.45000000    0.45000000          2/1000

Wave functions: Plane wave expansion
  Cutoff energy: 500.000 eV
  Number of coefficients (min, max): 1769, 1802
  Pulay-stress correction: 0.000000 eV/Ang^3 (de/decut=0.000000)
  Using FFTW library
  Eigensolver: None  MatrixOperator buffer_size: default value or 
                              see value of nblock in input file
Diagonalizer layout: Serial LAPACKOrthonormalizer layout: Serial LAPACK 

Davidson(niter=1, smin=None, normalize=True) 

Densities:
  Coarse grid: 20*20*20 grid
  Fine grid: 40*40*40 grid
  Total Charge: 0.000000 

Density mixing:
  Method: sum
  Backend: pulay
  Linear mixing parameter: 0.05
  Mixing with 5 old densities
  Damping of long wave oscillations: 50 

Hamiltonian:
  XC and Coulomb potentials evaluated on a 40*40*40 grid
  Using the PBE Exchange-Correlation functional
 

Memory estimate:
  Process memory now: 56.94 MiB
  Calculator: 23.48 MiB
    Density: 3.95 MiB
      Arrays: 2.14 MiB
      Localized functions: 1.20 MiB
      Mixer: 0.61 MiB
    Hamiltonian: 1.61 MiB
      Arrays: 1.59 MiB
      XC: 0.00 MiB
      Poisson: 0.00 MiB
      vbar: 0.02 MiB
    Wavefunctions: 17.92 MiB
      Arrays psit_nG: 10.89 MiB
      Eigensolver: 2.62 MiB
      Projections: 0.87 MiB
      Projectors: 1.23 MiB
      Overlap op: 1.88 MiB
      PW-descriptor: 0.43 MiB

Total number of cores used: 32
Parallelization over k-points and spin: 32

Number of atoms: 8
Number of atomic orbitals: 72
Number of bands in calculation: 66
Bands to converge: occupied states only
Number of valence electrons: 64

... initialized

Initializing position-dependent things.

Density initialized from atomic densities
Creating initial wave functions:
  66 bands from LCAO basis set

                            
                            
                            
                            
                            
           Fe               
         Fe    Fe           
             Fe             
             Fe             
           Fe    Fe         
               Fe           
                            
                            
                            
                            
                            

Positions:
   0 Fe     0.000003    0.000003    0.000003
   1 Fe     1.300003    1.300003   -1.299997
   2 Fe     1.300003   -1.299997    1.300003
   3 Fe     2.600003    0.000003    0.000003
   4 Fe    -1.299997    1.300003    1.300003
   5 Fe     0.000003    2.600003    0.000003
   6 Fe     0.000003    0.000003    2.600003
   7 Fe     1.300003    1.300003    1.300003

Unit cell:
           periodic     x           y           z      points  spacing
  1. axis:    yes   -2.600000    2.600000    2.600000    20     0.1838
  2. axis:    yes    2.600000   -2.600000    2.600000    20     0.1838
  3. axis:    yes    2.600000    2.600000   -2.600000    20     0.1838

  Lengths:   4.503332   4.503332   4.503332
  Angles:  109.471221 109.471221 109.471221

Effective grid spacing dv^(1/3) = 0.2064

                     log10-error:    total        iterations:
           time      wfs    density  energy       fermi  poisson  magmom
iter:   1  16:59:02  +2.28   +inf   -65.516387    3               +14.4022
iter:   2  16:59:04  +0.40   +inf   -66.234506    3               +14.3602
iter:   3  16:59:06  -0.59   +inf   -66.357259    2               +14.3520
iter:   4  16:59:09  -0.63  -1.37   -66.644295    3               +13.9299
iter:   5  16:59:11  -0.18  -1.41   -66.286351    34              +14.0738
iter:   6  16:59:14  -1.46  -1.79   -66.559014    3               +14.0313
iter:   7  16:59:16  -0.73  -1.92   -66.953529    3               +13.6770
iter:   8  16:59:19  -1.34  -2.43   -66.969203    3               +13.6914
iter:   9  16:59:21  -2.15  -2.75   -66.976841    3               +13.7295
iter:  10  16:59:24  -2.26  -2.71   -66.970182    3               +13.7336
iter:  11  16:59:26  -3.11  -2.74   -66.976311    2               +13.7590
iter:  12  16:59:29  -2.84  -2.67   -66.972741    2               +13.6110
iter:  13  16:59:32  -3.52  -2.80   -66.974753    2               +13.6521
iter:  14  16:59:34  -4.11  -2.92   -66.973683    2               +13.6429
iter:  15  16:59:37  -3.07  -2.98   -66.971573    2               +13.5077
iter:  16  16:59:39  -3.75  -3.77   -66.971569    2               +13.5113
iter:  17  16:59:42  -4.55  -4.07   -66.971431    2               +13.5321
iter:  18  16:59:44  -4.73  -3.57   -66.971369    2               +13.5220
iter:  19  16:59:47  -5.04  -3.78   -66.971202    2               +13.5054
iter:  20  16:59:49  -5.57  -4.63   -66.971172    2               +13.5037
iter:  21  16:59:52  -6.10  -4.71   -66.971133    2               +13.5023
iter:  22  16:59:55  -5.80  -4.69   -66.971014    2               +13.4962
iter:  23  16:59:57  -6.06  -4.75   -66.970944    2               +13.4924
iter:  24  17:00:00  -6.35  -4.99   -66.970978    2               +13.4940
iter:  25  17:00:02  -6.58  -5.07   -66.970949    2               +13.4923
iter:  26  17:00:05  -6.86  -5.10   -66.970933    1               +13.4917
iter:  27  17:00:07  -6.24  -5.10   -66.970898    2               +13.4893
iter:  28  17:00:10  -6.31  -4.65   -66.970871    1               +13.4886
iter:  29  17:00:12  -6.75  -5.13   -66.970860    2               +13.4879
iter:  30  17:00:15  -7.08  -4.73   -66.970848    2               +13.4874
iter:  31  17:00:18  -6.85  -4.84   -66.970894    2               +13.4896
iter:  32  17:00:20  -7.82  -5.34   -66.970893    1               +13.4896

Converged after 32 iterations.

Dipole moment: (-0.000202, -0.000202, -0.000202) |e|*Ang

Total magnetic moment: 13.489591
Local magnetic moments:
   0 Fe 1.721544
   1 Fe 1.721544
   2 Fe 1.721544
   3 Fe 1.721544
   4 Fe 1.721544
   5 Fe 1.721544
   6 Fe 1.721544
   7 Fe 1.721544

Energy contributions relative to reference atoms: (reference = -276955.636799)

Kinetic:       +210.448077
Potential:     -172.062151
External:        +0.000000
XC:            -106.368262
Entropy (-ST):   -0.250283
Local:           +1.136583
--------------------------
Free energy:    -67.096035
Extrapolated:   -66.970893

Spin contamination: 0.198242 electrons
Fermi level: 14.48818

Warning: Showing only first 2 kpts
                      Up                     Down
 Kpt  Band  Eigenvalues  Occupancy  Eigenvalues  Occupancy
  0    30     13.73279    0.00600     15.65560    0.00000
  0    31     13.73280    0.00600     15.71906    0.00000
  0    32     14.34622    0.00483     16.10644    0.00000
  0    33     14.34712    0.00482     16.10649    0.00000

  1    30     13.71953    0.00200     15.66260    0.00000
  1    31     13.71953    0.00200     15.66260    0.00000
  1    32     14.06248    0.00197     16.08954    0.00000
  1    33     14.06248    0.00197     16.08954    0.00000



Forces in eV/Ang:
  0 Fe   -0.00000   -0.00000   -0.00000
  1 Fe   -0.00000   -0.00000   -0.00000
  2 Fe   -0.00000   -0.00000   -0.00000
  3 Fe   -0.00000   -0.00000   -0.00000
  4 Fe   -0.00000   -0.00000   -0.00000
  5 Fe   -0.00000   -0.00000   -0.00000
  6 Fe   -0.00000   -0.00000   -0.00000
  7 Fe   -0.00000   -0.00000   -0.00000

Stress tensor:
    -0.590386     0.000025     0.000025
     0.000025    -0.590386     0.000025
     0.000025     0.000025    -0.590386
Writing to fecu_id1_relaxed.gpw (mode='')

System changes: positions, cell 

Initialize ...

Fe-setup:
  name: Iron
  id: 37abbd8d6c3c35915a9b583b742da910
  Z: 26
  valence: 8
  core: 18
  charge: 0.0
  file: /home/davidkl/gpaw-setups-0.9.20000/Fe.PBE.gz
  cutoffs: 1.06(comp), 2.06(filt), 2.67(core), lmax=2
  valence states:
                energy  radius
    4s(2.00)    -5.291   1.164
    4p(0.00)    -1.326   1.058
    3d(6.00)    -7.505   1.058
    *s          21.920   1.164
    *p          25.885   1.058
    *d          19.706   1.058

  Using partial waves for Fe as LCAO basis

Reference energy: -276955.636799

Spin-polarized calculation.
Magnetic moment:  17.600000

Occupation numbers:
  Fermi-Dirac: width=0.1000 eV

Convergence criteria:
  Maximum total energy change: 0.0005 eV / electron
  Maximum integral of absolute density change: 0.0001 electrons
  Maximum integral of absolute eigenstate change: 4e-08 eV^2
  Maximum number of iterations: 333

Symmetries present (total): 6

  ( 1  0  0)  ( 1  0  0)  ( 0  1  0)  ( 0  1  0)  ( 0  0  1)  ( 0  0  1)
  ( 0  1  0)  ( 0  0  1)  ( 1  0  0)  ( 0  0  1)  ( 1  0  0)  ( 0  1  0)
  ( 0  0  1)  ( 0  1  0)  ( 0  0  1)  ( 1  0  0)  ( 0  1  0)  ( 1  0  0)

1000 k-points: 10 x 10 x 10 Monkhorst-Pack grid
110 k-points in the irreducible part of the Brillouin zone
       k-points in crystal coordinates                weights
   0:     0.05000000    0.05000000   -0.05000000          6/1000
   1:     0.05000000    0.05000000    0.05000000          2/1000
   2:     0.15000000   -0.05000000   -0.05000000          6/1000
   3:     0.15000000    0.05000000   -0.15000000         12/1000
   4:     0.15000000    0.05000000   -0.05000000         12/1000
   5:     0.15000000    0.05000000    0.05000000          6/1000
   6:     0.15000000    0.15000000   -0.15000000          6/1000
   7:     0.15000000    0.15000000   -0.05000000          6/1000
   8:     0.15000000    0.15000000    0.05000000          6/1000
   9:     0.15000000    0.15000000    0.15000000          2/1000
          ...
 109:     0.45000000    0.45000000    0.45000000          2/1000

Wave functions: Plane wave expansion
  Cutoff energy: 500.000 eV
  Number of coefficients (min, max): 1794, 1842
  Pulay-stress correction: 0.000000 eV/Ang^3 (de/decut=0.000000)
  Using FFTW library
  Eigensolver: None  MatrixOperator buffer_size: default value or 
                              see value of nblock in input file
Diagonalizer layout: Serial LAPACKOrthonormalizer layout: Serial LAPACK 

Davidson(niter=1, smin=None, normalize=True) 

Densities:
  Coarse grid: 20*20*20 grid
  Fine grid: 40*40*40 grid
  Total Charge: 0.000000 

Density mixing:
  Method: sum
  Backend: pulay
  Linear mixing parameter: 0.05
  Mixing with 5 old densities
  Damping of long wave oscillations: 50 

Hamiltonian:
  XC and Coulomb potentials evaluated on a 40*40*40 grid
  Using the PBE Exchange-Correlation functional
 

Memory estimate:
  Process memory now: 207.65 MiB
  Calculator: 23.82 MiB
    Density: 3.95 MiB
      Arrays: 2.14 MiB
      Localized functions: 1.20 MiB
      Mixer: 0.61 MiB
    Hamiltonian: 1.61 MiB
      Arrays: 1.59 MiB
      XC: 0.00 MiB
      Poisson: 0.00 MiB
      vbar: 0.02 MiB
    Wavefunctions: 18.26 MiB
      Arrays psit_nG: 11.13 MiB
      Eigensolver: 2.66 MiB
      Projections: 0.87 MiB
      Projectors: 1.25 MiB
      Overlap op: 1.92 MiB
      PW-descriptor: 0.43 MiB

Total number of cores used: 32
Parallelization over k-points and spin: 32

Number of atoms: 8
Number of atomic orbitals: 72
Number of bands in calculation: 66
Bands to converge: occupied states only
Number of valence electrons: 64

... initialized

Initializing position-dependent things.

Density initialized from atomic densities
Creating initial wave functions:
  66 bands from LCAO basis set

                            
                            
                            
                            
                            
           Fe               
         Fe    Fe           
             Fe             
             Fe             
           Fe    Fe         
               Fe           
                            
                            
                            
                            
                            

Positions:
   0 Fe     0.000003    0.000003    0.000003
   1 Fe     1.306503    1.306503   -1.306498
   2 Fe     1.306503   -1.306498    1.306503
   3 Fe     2.613003    0.000002    0.000002
   4 Fe    -1.306498    1.306503    1.306503
   5 Fe     0.000002    2.613003    0.000002
   6 Fe     0.000002    0.000002    2.613003
   7 Fe     1.306502    1.306502    1.306502

Unit cell:
           periodic     x           y           z      points  spacing
  1. axis:    yes   -2.613001    2.613000    2.613000    20     0.1848
  2. axis:    yes    2.613000   -2.613001    2.613000    20     0.1848
  3. axis:    yes    2.613000    2.613000   -2.613001    20     0.1848

  Lengths:   4.525849   4.525849   4.525849
  Angles:  109.471232 109.471232 109.471232

Effective grid spacing dv^(1/3) = 0.2074

                     log10-error:    total        iterations:
           time      wfs    density  energy       fermi  poisson  magmom
iter:   1  17:00:38  +2.27   +inf   -66.158463    34              +14.5518
iter:   2  17:00:40  +0.40   +inf   -66.877328    3               +14.5113
iter:   3  17:00:42  -0.60   +inf   -67.000322    2               +14.5033
iter:   4  17:00:45  -0.63  -1.37   -67.277863    3               +14.0961
iter:   5  17:00:47  -0.19  -1.41   -66.914587    34              +14.2536
iter:   6  17:00:50  -1.45  -1.79   -67.187624    3               +14.2248
iter:   7  17:00:53  -0.74  -1.91   -67.569391    3               +13.9099
iter:   8  17:00:55  -1.39  -2.48   -67.581988    3               +13.9183
iter:   9  17:00:58  -2.19  -2.77   -67.589653    3               +13.9511
iter:  10  17:01:00  -2.25  -2.72   -67.584392    3               +13.9507
iter:  11  17:01:03  -3.08  -2.77   -67.590456    3               +13.9815
iter:  12  17:01:06  -2.80  -2.66   -67.586092    2               +13.8383
iter:  13  17:01:08  -3.59  -2.86   -67.587712    2               +13.8691
iter:  14  17:01:11  -4.19  -2.98   -67.586862    2               +13.8650
iter:  15  17:01:13  -3.16  -3.03   -67.585391    2               +13.7482
iter:  16  17:01:16  -3.81  -3.75   -67.585362    2               +13.7536
iter:  17  17:01:19  -4.81  -4.14   -67.585232    2               +13.7603
iter:  18  17:01:21  -4.96  -3.89   -67.585123    2               +13.7562
iter:  19  17:01:24  -5.01  -4.06   -67.584908    2               +13.7417
iter:  20  17:01:26  -5.69  -4.52   -67.584905    1               +13.7406
iter:  21  17:01:29  -6.02  -4.54   -67.584882    2               +13.7398
iter:  22  17:01:32  -5.31  -4.58   -67.584759    2               +13.7332
iter:  23  17:01:34  -5.58  -4.70   -67.584759    2               +13.7330
iter:  24  17:01:37  -6.04  -4.70   -67.584751    2               +13.7326
iter:  25  17:01:39  -6.20  -4.80   -67.584743    2               +13.7319
iter:  26  17:01:42  -6.54  -4.83   -67.584741    2               +13.7318
iter:  27  17:01:45  -5.98  -4.84   -67.584675    2               +13.7268
iter:  28  17:01:47  -6.47  -4.64   -67.584665    2               +13.7260
iter:  29  17:01:50  -6.16  -4.57   -67.584730    2               +13.7305
iter:  30  17:01:52  -6.69  -4.74   -67.584714    2               +13.7293
iter:  31  17:01:55  -6.31  -4.87   -67.584722    1               +13.7292
iter:  32  17:01:58  -6.67  -4.54   -67.584716    2               +13.7284
iter:  33  17:02:00  -6.51  -4.65   -67.584765    2               +13.7315
iter:  34  17:02:03  -7.11  -5.06   -67.584756    2               +13.7307
iter:  35  17:02:05  -7.58  -5.24   -67.584768    2               +13.7314

Converged after 35 iterations.

Dipole moment: (-0.000204, -0.000204, -0.000204) |e|*Ang

Total magnetic moment: 13.731381
Local magnetic moments:
   0 Fe 1.752843
   1 Fe 1.752843
   2 Fe 1.752843
   3 Fe 1.752843
   4 Fe 1.752843
   5 Fe 1.752843
   6 Fe 1.752843
   7 Fe 1.752843

Energy contributions relative to reference atoms: (reference = -276955.636799)

Kinetic:       +197.738815
Potential:     -161.781302
External:        +0.000000
XC:            -104.526621
Entropy (-ST):   -0.246660
Local:           +1.107670
--------------------------
Free energy:    -67.708099
Extrapolated:   -67.584768

Spin contamination: 0.209205 electrons
Fermi level: 14.21091

Warning: Showing only first 2 kpts
                      Up                     Down
 Kpt  Band  Eigenvalues  Occupancy  Eigenvalues  Occupancy
  0    30     13.43568    0.00600     15.40167    0.00000
  0    31     13.43570    0.00600     15.46366    0.00000
  0    32     14.05440    0.00496     15.84089    0.00000
  0    33     14.05531    0.00495     15.84094    0.00000

  1    30     13.42343    0.00200     15.40850    0.00000
  1    31     13.42343    0.00200     15.40850    0.00000
  1    32     13.77320    0.00198     15.82489    0.00000
  1    33     13.77320    0.00198     15.82489    0.00000



Forces in eV/Ang:
  0 Fe   -0.00000   -0.00000   -0.00000
  1 Fe   -0.00000   -0.00000   -0.00000
  2 Fe   -0.00000   -0.00000   -0.00000
  3 Fe   -0.00000   -0.00000   -0.00000
  4 Fe   -0.00000   -0.00000   -0.00000
  5 Fe   -0.00000   -0.00000   -0.00000
  6 Fe   -0.00000   -0.00000   -0.00000
  7 Fe   -0.00000   -0.00000   -0.00000

Stress tensor:
    -0.537007     0.000030     0.000030
     0.000030    -0.537007     0.000030
     0.000030     0.000030    -0.537007
Writing to fecu_id1_relaxed.gpw (mode='')

System changes: positions, cell 

Initialize ...

Fe-setup:
  name: Iron
  id: 37abbd8d6c3c35915a9b583b742da910
  Z: 26
  valence: 8
  core: 18
  charge: 0.0
  file: /home/davidkl/gpaw-setups-0.9.20000/Fe.PBE.gz
  cutoffs: 1.06(comp), 2.06(filt), 2.67(core), lmax=2
  valence states:
                energy  radius
    4s(2.00)    -5.291   1.164
    4p(0.00)    -1.326   1.058
    3d(6.00)    -7.505   1.058
    *s          21.920   1.164
    *p          25.885   1.058
    *d          19.706   1.058

  Using partial waves for Fe as LCAO basis

Reference energy: -276955.636799

Spin-polarized calculation.
Magnetic moment:  17.600000

Occupation numbers:
  Fermi-Dirac: width=0.1000 eV

Convergence criteria:
  Maximum total energy change: 0.0005 eV / electron
  Maximum integral of absolute density change: 0.0001 electrons
  Maximum integral of absolute eigenstate change: 4e-08 eV^2
  Maximum number of iterations: 333

Symmetries present (total): 6

  ( 1  0  0)  ( 1  0  0)  ( 0  1  0)  ( 0  1  0)  ( 0  0  1)  ( 0  0  1)
  ( 0  1  0)  ( 0  0  1)  ( 1  0  0)  ( 0  0  1)  ( 1  0  0)  ( 0  1  0)
  ( 0  0  1)  ( 0  1  0)  ( 0  0  1)  ( 1  0  0)  ( 0  1  0)  ( 1  0  0)

1000 k-points: 10 x 10 x 10 Monkhorst-Pack grid
110 k-points in the irreducible part of the Brillouin zone
       k-points in crystal coordinates                weights
   0:     0.05000000    0.05000000   -0.05000000          6/1000
   1:     0.05000000    0.05000000    0.05000000          2/1000
   2:     0.15000000   -0.05000000   -0.05000000          6/1000
   3:     0.15000000    0.05000000   -0.15000000         12/1000
   4:     0.15000000    0.05000000   -0.05000000         12/1000
   5:     0.15000000    0.05000000    0.05000000          6/1000
   6:     0.15000000    0.15000000   -0.15000000          6/1000
   7:     0.15000000    0.15000000   -0.05000000          6/1000
   8:     0.15000000    0.15000000    0.05000000          6/1000
   9:     0.15000000    0.15000000    0.15000000          2/1000
          ...
 109:     0.45000000    0.45000000    0.45000000          2/1000

Wave functions: Plane wave expansion
  Cutoff energy: 500.000 eV
  Number of coefficients (min, max): 1822, 1878
  Pulay-stress correction: 0.000000 eV/Ang^3 (de/decut=0.000000)
  Using FFTW library
  Eigensolver: None  MatrixOperator buffer_size: default value or 
                              see value of nblock in input file
Diagonalizer layout: Serial LAPACKOrthonormalizer layout: Serial LAPACK 

Davidson(niter=1, smin=None, normalize=True) 

Densities:
  Coarse grid: 20*20*20 grid
  Fine grid: 40*40*40 grid
  Total Charge: 0.000000 

Density mixing:
  Method: sum
  Backend: pulay
  Linear mixing parameter: 0.05
  Mixing with 5 old densities
  Damping of long wave oscillations: 50 

Hamiltonian:
  XC and Coulomb potentials evaluated on a 40*40*40 grid
  Using the PBE Exchange-Correlation functional
 

Memory estimate:
  Process memory now: 209.05 MiB
  Calculator: 24.14 MiB
    Density: 3.95 MiB
      Arrays: 2.14 MiB
      Localized functions: 1.20 MiB
      Mixer: 0.61 MiB
    Hamiltonian: 1.61 MiB
      Arrays: 1.59 MiB
      XC: 0.00 MiB
      Poisson: 0.00 MiB
      vbar: 0.02 MiB
    Wavefunctions: 18.58 MiB
      Arrays psit_nG: 11.35 MiB
      Eigensolver: 2.70 MiB
      Projections: 0.87 MiB
      Projectors: 1.27 MiB
      Overlap op: 1.96 MiB
      PW-descriptor: 0.43 MiB

Total number of cores used: 32
Parallelization over k-points and spin: 32

Number of atoms: 8
Number of atomic orbitals: 72
Number of bands in calculation: 66
Bands to converge: occupied states only
Number of valence electrons: 64

... initialized

Initializing position-dependent things.

Density initialized from atomic densities
Creating initial wave functions:
  66 bands from LCAO basis set

                             
                             
                             
                             
                             
           Fe                
         Fe     Fe           
             Fe              
              Fe             
           Fe     Fe         
                Fe           
                             
                             
                             
                             
                             

Positions:
   0 Fe     0.000003    0.000003    0.000003
   1 Fe     1.313003    1.313003   -1.312999
   2 Fe     1.313003   -1.312999    1.313003
   3 Fe     2.626003    0.000001    0.000001
   4 Fe    -1.312999    1.313003    1.313003
   5 Fe     0.000001    2.626003    0.000001
   6 Fe     0.000001    0.000001    2.626003
   7 Fe     1.313001    1.313001    1.313001

Unit cell:
           periodic     x           y           z      points  spacing
  1. axis:    yes   -2.626003    2.626000    2.626000    20     0.1857
  2. axis:    yes    2.626000   -2.626003    2.626000    20     0.1857
  3. axis:    yes    2.626000    2.626000   -2.626003    20     0.1857

  Lengths:   4.548367   4.548367   4.548367
  Angles:  109.471250 109.471250 109.471250

Effective grid spacing dv^(1/3) = 0.2084

                     log10-error:    total        iterations:
           time      wfs    density  energy       fermi  poisson  magmom
iter:   1  17:02:23  +2.26   +inf   -66.748002    34              +14.7002
iter:   2  17:02:25  +0.40   +inf   -67.466649    3               +14.6616
iter:   3  17:02:28  -0.60   +inf   -67.589045    2               +14.6536
iter:   4  17:02:30  -0.63  -1.37   -67.857999    4               +14.2601
iter:   5  17:02:33  -0.20  -1.42   -67.493044    32              +14.4311
iter:   6  17:02:35  -1.44  -1.79   -67.763370    4               +14.4150
iter:   7  17:02:38  -0.77  -1.91   -68.133888    3               +14.1359
iter:   8  17:02:41  -1.43  -2.52   -68.144936    3               +14.1401
iter:   9  17:02:43  -2.22  -2.79   -68.152441    3               +14.1686
iter:  10  17:02:46  -2.26  -2.73   -68.148407    3               +14.1651
iter:  11  17:02:48  -3.06  -2.80   -68.154332    3               +14.1995
iter:  12  17:02:51  -2.78  -2.66   -68.149541    2               +14.0622
iter:  13  17:02:54  -3.63  -2.90   -68.150919    2               +14.0870
iter:  14  17:02:56  -4.21  -3.03   -68.150259    2               +14.0879
iter:  15  17:02:59  -3.21  -3.06   -68.149210    2               +13.9826
iter:  16  17:03:01  -3.84  -3.70   -68.149130    2               +13.9919
iter:  17  17:03:04  -4.81  -4.18   -68.149117    2               +13.9906
iter:  18  17:03:07  -4.87  -4.16   -68.149058    2               +13.9898
iter:  19  17:03:09  -5.28  -4.26   -68.148904    2               +13.9854
iter:  20  17:03:12  -5.58  -4.30   -68.148988    2               +13.9849
iter:  21  17:03:14  -5.39  -4.32   -68.148873    2               +13.9797
iter:  22  17:03:17  -6.12  -4.35   -68.148844    2               +13.9803
iter:  23  17:03:20  -5.09  -4.45   -68.148727    2               +13.9732
iter:  24  17:03:22  -5.37  -4.52   -68.148773    2               +13.9754
iter:  25  17:03:25  -5.97  -4.84   -68.148767    2               +13.9750
iter:  26  17:03:27  -5.88  -4.96   -68.148751    2               +13.9743
iter:  27  17:03:30  -6.58  -4.97   -68.148749    1               +13.9738
iter:  28  17:03:33  -6.14  -4.84   -68.148784    2               +13.9770
iter:  29  17:03:35  -6.42  -4.66   -68.148762    2               +13.9750
iter:  30  17:03:38  -6.93  -4.83   -68.148764    2               +13.9752
iter:  31  17:03:40  -7.96  -4.80   -68.148765    2               +13.9753

Converged after 31 iterations.

Dipole moment: (-0.000207, -0.000207, -0.000207) |e|*Ang

Total magnetic moment: 13.975294
Local magnetic moments:
   0 Fe 1.786559
   1 Fe 1.786559
   2 Fe 1.786559
   3 Fe 1.786559
   4 Fe 1.786559
   5 Fe 1.786559
   6 Fe 1.786559
   7 Fe 1.786559

Energy contributions relative to reference atoms: (reference = -276955.636799)

Kinetic:       +185.404123
Potential:     -151.872910
External:        +0.000000
XC:            -102.731702
Entropy (-ST):   -0.243904
Local:           +1.173676
--------------------------
Free energy:    -68.270717
Extrapolated:   -68.148765

Spin contamination: 0.221755 electrons
Fermi level: 13.93896

Warning: Showing only first 2 kpts
                      Up                     Down
 Kpt  Band  Eigenvalues  Occupancy  Eigenvalues  Occupancy
  0    30     13.14461    0.00600     15.15428    0.00000
  0    31     13.14463    0.00600     15.21486    0.00000
  0    32     13.76877    0.00507     15.58268    0.00000
  0    33     13.76969    0.00507     15.58272    0.00000

  1    30     13.13229    0.00200     15.16095    0.00000
  1    31     13.13229    0.00200     15.16095    0.00000
  1    32     13.49048    0.00198     15.56674    0.00000
  1    33     13.49048    0.00198     15.56674    0.00000



Forces in eV/Ang:
  0 Fe   -0.00000   -0.00000   -0.00000
  1 Fe   -0.00000   -0.00000   -0.00000
  2 Fe   -0.00000   -0.00000   -0.00000
  3 Fe   -0.00000   -0.00000   -0.00000
  4 Fe   -0.00000   -0.00000   -0.00000
  5 Fe   -0.00000   -0.00000   -0.00000
  6 Fe   -0.00000   -0.00000   -0.00000
  7 Fe   -0.00000   -0.00000   -0.00000

Stress tensor:
    -0.486962     0.000033     0.000033
     0.000033    -0.486962     0.000033
     0.000033     0.000033    -0.486962
Writing to fecu_id1_relaxed.gpw (mode='')

System changes: positions, cell 

Initialize ...

Fe-setup:
  name: Iron
  id: 37abbd8d6c3c35915a9b583b742da910
  Z: 26
  valence: 8
  core: 18
  charge: 0.0
  file: /home/davidkl/gpaw-setups-0.9.20000/Fe.PBE.gz
  cutoffs: 1.06(comp), 2.06(filt), 2.67(core), lmax=2
  valence states:
                energy  radius
    4s(2.00)    -5.291   1.164
    4p(0.00)    -1.326   1.058
    3d(6.00)    -7.505   1.058
    *s          21.920   1.164
    *p          25.885   1.058
    *d          19.706   1.058

  Using partial waves for Fe as LCAO basis

Reference energy: -276955.636799

Spin-polarized calculation.
Magnetic moment:  17.600000

Occupation numbers:
  Fermi-Dirac: width=0.1000 eV

Convergence criteria:
  Maximum total energy change: 0.0005 eV / electron
  Maximum integral of absolute density change: 0.0001 electrons
  Maximum integral of absolute eigenstate change: 4e-08 eV^2
  Maximum number of iterations: 333

Symmetries present (total): 6

  ( 1  0  0)  ( 1  0  0)  ( 0  1  0)  ( 0  1  0)  ( 0  0  1)  ( 0  0  1)
  ( 0  1  0)  ( 0  0  1)  ( 1  0  0)  ( 0  0  1)  ( 1  0  0)  ( 0  1  0)
  ( 0  0  1)  ( 0  1  0)  ( 0  0  1)  ( 1  0  0)  ( 0  1  0)  ( 1  0  0)

1000 k-points: 10 x 10 x 10 Monkhorst-Pack grid
110 k-points in the irreducible part of the Brillouin zone
       k-points in crystal coordinates                weights
   0:     0.05000000    0.05000000   -0.05000000          6/1000
   1:     0.05000000    0.05000000    0.05000000          2/1000
   2:     0.15000000   -0.05000000   -0.05000000          6/1000
   3:     0.15000000    0.05000000   -0.15000000         12/1000
   4:     0.15000000    0.05000000   -0.05000000         12/1000
   5:     0.15000000    0.05000000    0.05000000          6/1000
   6:     0.15000000    0.15000000   -0.15000000          6/1000
   7:     0.15000000    0.15000000   -0.05000000          6/1000
   8:     0.15000000    0.15000000    0.05000000          6/1000
   9:     0.15000000    0.15000000    0.15000000          2/1000
          ...
 109:     0.45000000    0.45000000    0.45000000          2/1000

Wave functions: Plane wave expansion
  Cutoff energy: 500.000 eV
  Number of coefficients (min, max): 1824, 1886
  Pulay-stress correction: 0.000000 eV/Ang^3 (de/decut=0.000000)
  Using FFTW library
  Eigensolver: None  MatrixOperator buffer_size: default value or 
                              see value of nblock in input file
Diagonalizer layout: Serial LAPACKOrthonormalizer layout: Serial LAPACK 

Davidson(niter=1, smin=None, normalize=True) 

Densities:
  Coarse grid: 20*20*20 grid
  Fine grid: 40*40*40 grid
  Total Charge: 0.000000 

Density mixing:
  Method: sum
  Backend: pulay
  Linear mixing parameter: 0.05
  Mixing with 5 old densities
  Damping of long wave oscillations: 50 

Hamiltonian:
  XC and Coulomb potentials evaluated on a 40*40*40 grid
  Using the PBE Exchange-Correlation functional
 

Memory estimate:
  Process memory now: 210.15 MiB
  Calculator: 24.22 MiB
    Density: 3.95 MiB
      Arrays: 2.14 MiB
      Localized functions: 1.20 MiB
      Mixer: 0.61 MiB
    Hamiltonian: 1.61 MiB
      Arrays: 1.59 MiB
      XC: 0.00 MiB
      Poisson: 0.00 MiB
      vbar: 0.02 MiB
    Wavefunctions: 18.66 MiB
      Arrays psit_nG: 11.40 MiB
      Eigensolver: 2.71 MiB
      Projections: 0.87 MiB
      Projectors: 1.29 MiB
      Overlap op: 1.97 MiB
      PW-descriptor: 0.43 MiB

Total number of cores used: 32
Parallelization over k-points and spin: 32

Number of atoms: 8
Number of atomic orbitals: 72
Number of bands in calculation: 66
Bands to converge: occupied states only
Number of valence electrons: 64

... initialized

Initializing position-dependent things.

Density initialized from atomic densities
Creating initial wave functions:
  66 bands from LCAO basis set

                             
                             
                             
                             
                             
           Fe                
         Fe     Fe           
             Fe              
              Fe             
           Fe     Fe         
                Fe           
                             
                             
                             
                             
                             

Positions:
   0 Fe     0.000003    0.000003    0.000003
   1 Fe     1.319503    1.319503   -1.319500
   2 Fe     1.319503   -1.319500    1.319503
   3 Fe     2.639003    0.000000    0.000000
   4 Fe    -1.319500    1.319503    1.319503
   5 Fe     0.000000    2.639003    0.000000
   6 Fe     0.000000    0.000000    2.639003
   7 Fe     1.319500    1.319500    1.319500

Unit cell:
           periodic     x           y           z      points  spacing
  1. axis:    yes   -2.639005    2.639000    2.639000    20     0.1866
  2. axis:    yes    2.639000   -2.639005    2.639000    20     0.1866
  3. axis:    yes    2.639000    2.639000   -2.639005    20     0.1866

  Lengths:   4.570885   4.570885   4.570885
  Angles:  109.471274 109.471274 109.471274

Effective grid spacing dv^(1/3) = 0.2095

                     log10-error:    total        iterations:
           time      wfs    density  energy       fermi  poisson  magmom
iter:   1  17:03:58  +2.25   +inf   -67.283915    34              +14.8475
iter:   2  17:04:00  +0.41   +inf   -68.002064    3               +14.8104
iter:   3  17:04:03  -0.61   +inf   -68.124332    2               +14.8026
iter:   4  17:04:05  -0.63  -1.37   -68.386082    4               +14.4220
iter:   5  17:04:08  -0.21  -1.42   -68.022441    34              +14.6059
iter:   6  17:04:11  -1.44  -1.79   -68.288388    4               +14.6023
iter:   7  17:04:13  -0.79  -1.91   -68.649616    3               +14.3567
iter:   8  17:04:16  -1.47  -2.55   -68.659705    3               +14.3587
iter:   9  17:04:19  -2.26  -2.81   -68.666889    3               +14.3838
iter:  10  17:04:21  -2.27  -2.74   -68.663826    3               +14.3780
iter:  11  17:04:24  -3.06  -2.82   -68.669514    3               +14.4129
iter:  12  17:04:27  -2.78  -2.67   -68.664784    3               +14.2868
iter:  13  17:04:29  -3.70  -2.93   -68.665961    2               +14.3055
iter:  14  17:04:32  -4.16  -3.07   -68.664664    2               +14.3179
iter:  15  17:04:34  -3.03  -3.01   -68.665456    3               +14.1999
iter:  16  17:04:37  -3.62  -3.46   -68.664534    2               +14.2248
iter:  17  17:04:40  -5.04  -4.24   -68.664550    2               +14.2246
iter:  18  17:04:42  -5.01  -4.22   -68.664499    2               +14.2262
iter:  19  17:04:45  -5.46  -4.30   -68.664438    2               +14.2234
iter:  20  17:04:48  -5.07  -4.40   -68.664336    2               +14.2159
iter:  21  17:04:50  -5.37  -4.44   -68.664318    2               +14.2147
iter:  22  17:04:53  -5.69  -4.16   -68.664344    2               +14.2159
iter:  23  17:04:56  -6.22  -4.46   -68.664328    2               +14.2149
iter:  24  17:04:58  -5.80  -4.56   -68.664246    2               +14.2082
iter:  25  17:05:01  -5.27  -4.36   -68.664058    2               +14.1955
iter:  26  17:05:04  -4.71  -3.89   -68.664294    2               +14.2115
iter:  27  17:05:06  -5.81  -4.62   -68.664322    1               +14.2140
iter:  28  17:05:09  -6.51  -4.70   -68.664322    2               +14.2141
iter:  29  17:05:11  -6.63  -4.71   -68.664312    2               +14.2123
iter:  30  17:05:14  -6.82  -4.45   -68.664313    2               +14.2130
iter:  31  17:05:17  -6.02  -4.64   -68.664284    2               +14.2110
iter:  32  17:05:19  -6.28  -4.48   -68.664311    2               +14.2138
iter:  33  17:05:22  -6.58  -4.80   -68.664289    2               +14.2130
iter:  34  17:05:25  -7.03  -4.90   -68.664280    2               +14.2121
iter:  35  17:05:27  -6.08  -4.92   -68.664213    2               +14.2082
iter:  36  17:05:30  -6.49  -4.95   -68.664212    2               +14.2085
iter:  37  17:05:32  -7.55  -5.17   -68.664212    2               +14.2084

Converged after 37 iterations.

Dipole moment: (-0.000209, -0.000209, -0.000209) |e|*Ang

Total magnetic moment: 14.208436
Local magnetic moments:
   0 Fe 1.817345
   1 Fe 1.817345
   2 Fe 1.817345
   3 Fe 1.817345
   4 Fe 1.817345
   5 Fe 1.817345
   6 Fe 1.817345
   7 Fe 1.817345

Energy contributions relative to reference atoms: (reference = -276955.636799)

Kinetic:       +173.961332
Potential:     -142.619730
External:        +0.000000
XC:            -101.026870
Entropy (-ST):   -0.242608
Local:           +1.142360
--------------------------
Free energy:    -68.785516
Extrapolated:   -68.664212

Spin contamination: 0.234314 electrons
Fermi level: 13.67096

Warning: Showing only first 2 kpts
                      Up                     Down
 Kpt  Band  Eigenvalues  Occupancy  Eigenvalues  Occupancy
  0    30     12.86000    0.00600     14.90956    0.00000
  0    31     12.86003    0.00600     14.96875    0.00000
  0    32     13.48969    0.00516     15.32749    0.00000
  0    33     13.49062    0.00515     15.32753    0.00000

  1    30     12.84766    0.00200     14.91607    0.00000
  1    31     12.84766    0.00200     14.91607    0.00000
  1    32     13.21406    0.00198     15.31165    0.00000
  1    33     13.21406    0.00198     15.31165    0.00000



Forces in eV/Ang:
  0 Fe    0.00000    0.00000    0.00000
  1 Fe   -0.00000   -0.00000   -0.00000
  2 Fe   -0.00000   -0.00000   -0.00000
  3 Fe    0.00000    0.00000    0.00000
  4 Fe   -0.00000   -0.00000   -0.00000
  5 Fe    0.00000    0.00000    0.00000
  6 Fe    0.00000    0.00000    0.00000
  7 Fe   -0.00000   -0.00000   -0.00000

Stress tensor:
    -0.439857     0.000038     0.000038
     0.000038    -0.439857     0.000038
     0.000038     0.000038    -0.439857
Writing to fecu_id1_relaxed.gpw (mode='')

System changes: positions, cell 

Initialize ...

Fe-setup:
  name: Iron
  id: 37abbd8d6c3c35915a9b583b742da910
  Z: 26
  valence: 8
  core: 18
  charge: 0.0
  file: /home/davidkl/gpaw-setups-0.9.20000/Fe.PBE.gz
  cutoffs: 1.06(comp), 2.06(filt), 2.67(core), lmax=2
  valence states:
                energy  radius
    4s(2.00)    -5.291   1.164
    4p(0.00)    -1.326   1.058
    3d(6.00)    -7.505   1.058
    *s          21.920   1.164
    *p          25.885   1.058
    *d          19.706   1.058

  Using partial waves for Fe as LCAO basis

Reference energy: -276955.636799

Spin-polarized calculation.
Magnetic moment:  17.600000

Occupation numbers:
  Fermi-Dirac: width=0.1000 eV

Convergence criteria:
  Maximum total energy change: 0.0005 eV / electron
  Maximum integral of absolute density change: 0.0001 electrons
  Maximum integral of absolute eigenstate change: 4e-08 eV^2
  Maximum number of iterations: 333

Symmetries present (total): 6

  ( 1  0  0)  ( 1  0  0)  ( 0  1  0)  ( 0  1  0)  ( 0  0  1)  ( 0  0  1)
  ( 0  1  0)  ( 0  0  1)  ( 1  0  0)  ( 0  0  1)  ( 1  0  0)  ( 0  1  0)
  ( 0  0  1)  ( 0  1  0)  ( 0  0  1)  ( 1  0  0)  ( 0  1  0)  ( 1  0  0)

1000 k-points: 10 x 10 x 10 Monkhorst-Pack grid
110 k-points in the irreducible part of the Brillouin zone
       k-points in crystal coordinates                weights
   0:     0.05000000    0.05000000   -0.05000000          6/1000
   1:     0.05000000    0.05000000    0.05000000          2/1000
   2:     0.15000000   -0.05000000   -0.05000000          6/1000
   3:     0.15000000    0.05000000   -0.15000000         12/1000
   4:     0.15000000    0.05000000   -0.05000000         12/1000
   5:     0.15000000    0.05000000    0.05000000          6/1000
   6:     0.15000000    0.15000000   -0.15000000          6/1000
   7:     0.15000000    0.15000000   -0.05000000          6/1000
   8:     0.15000000    0.15000000    0.05000000          6/1000
   9:     0.15000000    0.15000000    0.15000000          2/1000
          ...
 109:     0.45000000    0.45000000    0.45000000          2/1000

Wave functions: Plane wave expansion
  Cutoff energy: 500.000 eV
  Number of coefficients (min, max): 1879, 1920
  Pulay-stress correction: 0.000000 eV/Ang^3 (de/decut=0.000000)
  Using FFTW library
  Eigensolver: None  MatrixOperator buffer_size: default value or 
                              see value of nblock in input file
Diagonalizer layout: Serial LAPACKOrthonormalizer layout: Serial LAPACK 

Davidson(niter=1, smin=None, normalize=True) 

Densities:
  Coarse grid: 20*20*20 grid
  Fine grid: 40*40*40 grid
  Total Charge: 0.000000 

Density mixing:
  Method: sum
  Backend: pulay
  Linear mixing parameter: 0.05
  Mixing with 5 old densities
  Damping of long wave oscillations: 50 

Hamiltonian:
  XC and Coulomb potentials evaluated on a 40*40*40 grid
  Using the PBE Exchange-Correlation functional
 

Memory estimate:
  Process memory now: 210.36 MiB
  Calculator: 24.52 MiB
    Density: 3.95 MiB
      Arrays: 2.14 MiB
      Localized functions: 1.20 MiB
      Mixer: 0.61 MiB
    Hamiltonian: 1.61 MiB
      Arrays: 1.59 MiB
      XC: 0.00 MiB
      Poisson: 0.00 MiB
      vbar: 0.02 MiB
    Wavefunctions: 18.96 MiB
      Arrays psit_nG: 11.60 MiB
      Eigensolver: 2.75 MiB
      Projections: 0.87 MiB
      Projectors: 1.31 MiB
      Overlap op: 2.00 MiB
      PW-descriptor: 0.44 MiB

Total number of cores used: 32
Parallelization over k-points and spin: 32

Number of atoms: 8
Number of atomic orbitals: 72
Number of bands in calculation: 66
Bands to converge: occupied states only
Number of valence electrons: 64

... initialized

Initializing position-dependent things.

Density initialized from atomic densities
Creating initial wave functions:
  66 bands from LCAO basis set

                             
                             
                             
                             
                             
           Fe                
         Fe     Fe           
             Fe              
              Fe             
           Fe     Fe         
                Fe           
                             
                             
                             
                             
                             

Positions:
   0 Fe     0.000003    0.000003    0.000003
   1 Fe     1.326003    1.326003   -1.326001
   2 Fe     1.326003   -1.326001    1.326003
   3 Fe     2.652003   -0.000001   -0.000001
   4 Fe    -1.326001    1.326003    1.326003
   5 Fe    -0.000001    2.652003   -0.000001
   6 Fe    -0.000001   -0.000001    2.652003
   7 Fe     1.325999    1.325999    1.325999

Unit cell:
           periodic     x           y           z      points  spacing
  1. axis:    yes   -2.652008    2.652000    2.652000    20     0.1875
  2. axis:    yes    2.652000   -2.652008    2.652000    20     0.1875
  3. axis:    yes    2.652000    2.652000   -2.652008    20     0.1875

  Lengths:   4.593403   4.593403   4.593403
  Angles:  109.471304 109.471304 109.471304

Effective grid spacing dv^(1/3) = 0.2105

                     log10-error:    total        iterations:
           time      wfs    density  energy       fermi  poisson  magmom
iter:   1  17:05:50  +2.25   +inf   -67.770701    34              +14.9941
iter:   2  17:05:53  +0.41   +inf   -68.488191    3               +14.9583
iter:   3  17:05:55  -0.61   +inf   -68.610023    2               +14.9507
iter:   4  17:05:57  -0.63  -1.38   -68.865683    4               +14.5816
iter:   5  17:06:00  -0.23  -1.42   -68.505856    32              +14.7780
iter:   6  17:06:03  -1.44  -1.79   -68.766209    4               +14.7866
iter:   7  17:06:05  -0.82  -1.91   -69.120589    3               +14.5736
iter:   8  17:06:08  -1.51  -2.56   -69.130014    3               +14.5752
iter:   9  17:06:11  -2.29  -2.83   -69.136814    3               +14.5976
iter:  10  17:06:13  -2.29  -2.75   -69.134545    3               +14.5900
iter:  11  17:06:16  -3.06  -2.83   -69.139874    3               +14.6238
iter:  12  17:06:19  -2.80  -2.68   -69.135378    3               +14.5109
iter:  13  17:06:21  -3.75  -2.96   -69.136399    2               +14.5248
iter:  14  17:06:24  -3.62  -3.09   -69.130880    2               +14.5697
iter:  15  17:06:27  -2.73  -2.80   -69.143731    3               +14.5110
iter:  16  17:06:29  -3.09  -2.51   -69.135215    3               +14.4358
iter:  17  17:06:32  -3.54  -3.53   -69.135277    2               +14.4478
iter:  18  17:06:35  -4.00  -4.04   -69.135309    2               +14.4497
iter:  19  17:06:37  -4.14  -4.07   -69.134995    2               +14.4610
iter:  20  17:06:40  -4.43  -3.78   -69.134979    2               +14.4309
iter:  21  17:06:43  -4.79  -3.79   -69.134955    2               +14.4452
iter:  22  17:06:45  -6.02  -4.18   -69.134962    2               +14.4455
iter:  23  17:06:48  -6.00  -4.24   -69.134962    2               +14.4441
iter:  24  17:06:51  -6.54  -4.66   -69.134963    2               +14.4437
iter:  25  17:06:53  -6.59  -4.71   -69.134976    2               +14.4441
iter:  26  17:06:56  -6.74  -4.88   -69.134974    1               +14.4435
iter:  27  17:06:59  -6.88  -5.00   -69.134965    2               +14.4429
iter:  28  17:07:01  -7.28  -5.06   -69.134965    1               +14.4429
iter:  29  17:07:04  -6.48  -5.09   -69.134932    2               +14.4407
iter:  30  17:07:07  -6.80  -5.08   -69.134931    2               +14.4405
iter:  31  17:07:09  -7.08  -5.57   -69.134931    1               +14.4405
iter:  32  17:07:12  -7.47  -5.98   -69.134930    1               +14.4405

Converged after 32 iterations.

Dipole moment: (-0.000211, -0.000211, -0.000211) |e|*Ang

Total magnetic moment: 14.440533
Local magnetic moments:
   0 Fe 1.848114
   1 Fe 1.848114
   2 Fe 1.848114
   3 Fe 1.848114
   4 Fe 1.848114
   5 Fe 1.848114
   6 Fe 1.848114
   7 Fe 1.848114

Energy contributions relative to reference atoms: (reference = -276955.636799)

Kinetic:       +163.250236
Potential:     -133.974130
External:        +0.000000
XC:             -99.394987
Entropy (-ST):   -0.242343
Local:           +1.105122
--------------------------
Free energy:    -69.256102
Extrapolated:   -69.134930

Spin contamination: 0.247244 electrons
Fermi level: 13.40721

Warning: Showing only first 2 kpts
                      Up                     Down
 Kpt  Band  Eigenvalues  Occupancy  Eigenvalues  Occupancy
  0    30     12.58081    0.00600     14.66962    0.00000
  0    31     12.58085    0.00600     14.72748    0.00000
  0    32     13.21664    0.00522     15.07730    0.00000
  0    33     13.21758    0.00522     15.07733    0.00000

  1    30     12.56889    0.00200     14.67589    0.00000
  1    31     12.56889    0.00200     14.67589    0.00000
  1    32     12.94363    0.00198     15.06184    0.00000
  1    33     12.94363    0.00198     15.06184    0.00000



Forces in eV/Ang:
  0 Fe    0.00000    0.00000    0.00000
  1 Fe   -0.00000   -0.00000   -0.00000
  2 Fe   -0.00000   -0.00000   -0.00000
  3 Fe    0.00000    0.00000    0.00000
  4 Fe   -0.00000   -0.00000   -0.00000
  5 Fe    0.00000    0.00000    0.00000
  6 Fe    0.00000    0.00000    0.00000
  7 Fe   -0.00000   -0.00000   -0.00000

Stress tensor:
    -0.395657     0.000042     0.000042
     0.000042    -0.395657     0.000042
     0.000042     0.000042    -0.395657
Writing to fecu_id1_relaxed.gpw (mode='')

System changes: positions, cell 

Initialize ...

Fe-setup:
  name: Iron
  id: 37abbd8d6c3c35915a9b583b742da910
  Z: 26
  valence: 8
  core: 18
  charge: 0.0
  file: /home/davidkl/gpaw-setups-0.9.20000/Fe.PBE.gz
  cutoffs: 1.06(comp), 2.06(filt), 2.67(core), lmax=2
  valence states:
                energy  radius
    4s(2.00)    -5.291   1.164
    4p(0.00)    -1.326   1.058
    3d(6.00)    -7.505   1.058
    *s          21.920   1.164
    *p          25.885   1.058
    *d          19.706   1.058

  Using partial waves for Fe as LCAO basis

Reference energy: -276955.636799

Spin-polarized calculation.
Magnetic moment:  17.600000

Occupation numbers:
  Fermi-Dirac: width=0.1000 eV

Convergence criteria:
  Maximum total energy change: 0.0005 eV / electron
  Maximum integral of absolute density change: 0.0001 electrons
  Maximum integral of absolute eigenstate change: 4e-08 eV^2
  Maximum number of iterations: 333

Symmetries present (total): 6

  ( 1  0  0)  ( 1  0  0)  ( 0  1  0)  ( 0  1  0)  ( 0  0  1)  ( 0  0  1)
  ( 0  1  0)  ( 0  0  1)  ( 1  0  0)  ( 0  0  1)  ( 1  0  0)  ( 0  1  0)
  ( 0  0  1)  ( 0  1  0)  ( 0  0  1)  ( 1  0  0)  ( 0  1  0)  ( 1  0  0)

1000 k-points: 10 x 10 x 10 Monkhorst-Pack grid
110 k-points in the irreducible part of the Brillouin zone
       k-points in crystal coordinates                weights
   0:     0.05000000    0.05000000   -0.05000000          6/1000
   1:     0.05000000    0.05000000    0.05000000          2/1000
   2:     0.15000000   -0.05000000   -0.05000000          6/1000
   3:     0.15000000    0.05000000   -0.15000000         12/1000
   4:     0.15000000    0.05000000   -0.05000000         12/1000
   5:     0.15000000    0.05000000    0.05000000          6/1000
   6:     0.15000000    0.15000000   -0.15000000          6/1000
   7:     0.15000000    0.15000000   -0.05000000          6/1000
   8:     0.15000000    0.15000000    0.05000000          6/1000
   9:     0.15000000    0.15000000    0.15000000          2/1000
          ...
 109:     0.45000000    0.45000000    0.45000000          2/1000

Wave functions: Plane wave expansion
  Cutoff energy: 500.000 eV
  Number of coefficients (min, max): 1908, 1936
  Pulay-stress correction: 0.000000 eV/Ang^3 (de/decut=0.000000)
  Using FFTW library
  Eigensolver: None  MatrixOperator buffer_size: default value or 
                              see value of nblock in input file
Diagonalizer layout: Serial LAPACKOrthonormalizer layout: Serial LAPACK 

Davidson(niter=1, smin=None, normalize=True) 

Densities:
  Coarse grid: 20*20*20 grid
  Fine grid: 40*40*40 grid
  Total Charge: 0.000000 

Density mixing:
  Method: sum
  Backend: pulay
  Linear mixing parameter: 0.05
  Mixing with 5 old densities
  Damping of long wave oscillations: 50 

Hamiltonian:
  XC and Coulomb potentials evaluated on a 40*40*40 grid
  Using the PBE Exchange-Correlation functional
 

Memory estimate:
  Process memory now: 214.36 MiB
  Calculator: 24.67 MiB
    Density: 3.95 MiB
      Arrays: 2.14 MiB
      Localized functions: 1.20 MiB
      Mixer: 0.61 MiB
    Hamiltonian: 1.61 MiB
      Arrays: 1.59 MiB
      XC: 0.00 MiB
      Poisson: 0.00 MiB
      vbar: 0.02 MiB
    Wavefunctions: 19.11 MiB
      Arrays psit_nG: 11.70 MiB
      Eigensolver: 2.76 MiB
      Projections: 0.87 MiB
      Projectors: 1.33 MiB
      Overlap op: 2.02 MiB
      PW-descriptor: 0.44 MiB

Total number of cores used: 32
Parallelization over k-points and spin: 32

Number of atoms: 8
Number of atomic orbitals: 72
Number of bands in calculation: 66
Bands to converge: occupied states only
Number of valence electrons: 64

... initialized

Initializing position-dependent things.

Density initialized from atomic densities
Creating initial wave functions:
  66 bands from LCAO basis set

                             
                             
                             
                             
                             
           Fe                
         Fe     Fe           
             Fe              
              Fe             
           Fe     Fe         
                Fe           
                             
                             
                             
                             
                             

Positions:
   0 Fe     0.000003    0.000003    0.000003
   1 Fe     1.332503    1.332503   -1.332503
   2 Fe     1.332503   -1.332503    1.332503
   3 Fe     2.665003   -0.000003   -0.000003
   4 Fe    -1.332503    1.332503    1.332503
   5 Fe    -0.000003    2.665003   -0.000003
   6 Fe    -0.000003   -0.000003    2.665003
   7 Fe     1.332497    1.332497    1.332497

Unit cell:
           periodic     x           y           z      points  spacing
  1. axis:    yes   -2.665012    2.665000    2.665000    20     0.1884
  2. axis:    yes    2.665000   -2.665012    2.665000    20     0.1884
  3. axis:    yes    2.665000    2.665000   -2.665012    20     0.1884

  Lengths:   4.615922   4.615922   4.615922
  Angles:  109.471341 109.471341 109.471341

Effective grid spacing dv^(1/3) = 0.2115

                     log10-error:    total        iterations:
           time      wfs    density  energy       fermi  poisson  magmom
iter:   1  17:07:30  +2.24   +inf   -68.215844    34              +15.1397
iter:   2  17:07:32  +0.41   +inf   -68.928047    2               +15.1052
iter:   3  17:07:34  -0.62   +inf   -69.048830    2               +15.0977
iter:   4  17:07:37  -0.64  -1.38   -69.299089    4               +14.7391
iter:   5  17:07:40  -0.24  -1.42   -68.945855    33              +14.9480
iter:   6  17:07:42  -1.45  -1.79   -69.200479    4               +14.9680
iter:   7  17:07:45  -0.85  -1.91   -69.548726    3               +14.7864
iter:   8  17:07:48  -1.54  -2.57   -69.557578    3               +14.7894
iter:   9  17:07:51  -2.32  -2.85   -69.563896    3               +14.8094
iter:  10  17:07:53  -2.31  -2.77   -69.562342    3               +14.8008
iter:  11  17:07:56  -3.07  -2.85   -69.567081    3               +14.8303
iter:  12  17:07:59  -2.84  -2.69   -69.563152    3               +14.7360
iter:  13  17:08:01  -3.82  -2.98   -69.564024    2               +14.7448
iter:  14  17:08:04  -3.81  -3.12   -69.564196    3               +14.7303
iter:  15  17:08:07  -3.79  -3.00   -69.563902    2               +14.7043
iter:  16  17:08:09  -3.19  -2.91   -69.563916    3               +14.6348
iter:  17  17:08:12  -3.21  -3.09   -69.563009    3               +14.6780
iter:  18  17:08:15  -4.53  -4.01   -69.563060    2               +14.6808
iter:  19  17:08:17  -4.41  -4.01   -69.562960    2               +14.6833
iter:  20  17:08:20  -4.59  -4.11   -69.562787    2               +14.6903
iter:  21  17:08:23  -5.12  -3.95   -69.562807    2               +14.6895
iter:  22  17:08:26  -5.53  -4.00   -69.562779    2               +14.6897
iter:  23  17:08:28  -5.65  -3.99   -69.562798    2               +14.6844
iter:  24  17:08:31  -6.06  -4.19   -69.562810    2               +14.6845
iter:  25  17:08:34  -5.59  -4.23   -69.562812    2               +14.6774
iter:  26  17:08:36  -5.06  -4.07   -69.562718    2               +14.6752
iter:  27  17:08:39  -5.43  -4.60   -69.562702    2               +14.6747
iter:  28  17:08:42  -5.85  -4.49   -69.562688    2               +14.6725
iter:  29  17:08:44  -6.25  -4.55   -69.562651    2               +14.6695
iter:  30  17:08:47  -6.99  -4.49   -69.562649    1               +14.6693
iter:  31  17:08:50  -6.49  -4.48   -69.562647    2               +14.6701
iter:  32  17:08:52  -6.25  -4.71   -69.562669    2               +14.6720
iter:  33  17:08:55  -7.40  -4.63   -69.562676    2               +14.6723

Converged after 33 iterations.

Dipole moment: (-0.000213, -0.000213, -0.000213) |e|*Ang

Total magnetic moment: 14.672300
Local magnetic moments:
   0 Fe 1.878601
   1 Fe 1.878603
   2 Fe 1.878603
   3 Fe 1.878603
   4 Fe 1.878603
   5 Fe 1.878603
   6 Fe 1.878603
   7 Fe 1.878601

Energy contributions relative to reference atoms: (reference = -276955.636799)

Kinetic:       +153.574790
Potential:     -126.175480
External:        +0.000000
XC:             -97.860764
Entropy (-ST):   -0.242772
Local:           +1.020164
--------------------------
Free energy:    -69.684062
Extrapolated:   -69.562676

Spin contamination: 0.260672 electrons
Fermi level: 13.14745

Warning: Showing only first 2 kpts
                      Up                     Down
 Kpt  Band  Eigenvalues  Occupancy  Eigenvalues  Occupancy
  0    30     12.30613    0.00600     14.43443    0.00000
  0    31     12.30618    0.00600     14.49080    0.00000
  0    32     12.94914    0.00527     14.83147    0.00000
  0    33     12.95010    0.00527     14.83149    0.00000

  1    30     12.29542    0.00200     14.44040    0.00000
  1    31     12.29542    0.00200     14.44040    0.00000
  1    32     12.67913    0.00198     14.81702    0.00000
  1    33     12.67913    0.00198     14.81702    0.00000



Forces in eV/Ang:
  0 Fe   -0.00000   -0.00000   -0.00000
  1 Fe    0.00000    0.00000    0.00000
  2 Fe    0.00000    0.00000    0.00000
  3 Fe   -0.00000   -0.00000   -0.00000
  4 Fe    0.00000    0.00000    0.00000
  5 Fe   -0.00000   -0.00000   -0.00000
  6 Fe   -0.00000   -0.00000   -0.00000
  7 Fe    0.00000    0.00000    0.00000

Stress tensor:
    -0.354250     0.000046     0.000046
     0.000046    -0.354250     0.000046
     0.000046     0.000046    -0.354250
Writing to fecu_id1_relaxed.gpw (mode='')

System changes: positions, cell 

Initialize ...

Fe-setup:
  name: Iron
  id: 37abbd8d6c3c35915a9b583b742da910
  Z: 26
  valence: 8
  core: 18
  charge: 0.0
  file: /home/davidkl/gpaw-setups-0.9.20000/Fe.PBE.gz
  cutoffs: 1.06(comp), 2.06(filt), 2.67(core), lmax=2
  valence states:
                energy  radius
    4s(2.00)    -5.291   1.164
    4p(0.00)    -1.326   1.058
    3d(6.00)    -7.505   1.058
    *s          21.920   1.164
    *p          25.885   1.058
    *d          19.706   1.058

  Using partial waves for Fe as LCAO basis

Reference energy: -276955.636799

Spin-polarized calculation.
Magnetic moment:  17.600000

Occupation numbers:
  Fermi-Dirac: width=0.1000 eV

Convergence criteria:
  Maximum total energy change: 0.0005 eV / electron
  Maximum integral of absolute density change: 0.0001 electrons
  Maximum integral of absolute eigenstate change: 4e-08 eV^2
  Maximum number of iterations: 333

Symmetries present (total): 6

  ( 1  0  0)  ( 1  0  0)  ( 0  1  0)  ( 0  1  0)  ( 0  0  1)  ( 0  0  1)
  ( 0  1  0)  ( 0  0  1)  ( 1  0  0)  ( 0  0  1)  ( 1  0  0)  ( 0  1  0)
  ( 0  0  1)  ( 0  1  0)  ( 0  0  1)  ( 1  0  0)  ( 0  1  0)  ( 1  0  0)

1000 k-points: 10 x 10 x 10 Monkhorst-Pack grid
110 k-points in the irreducible part of the Brillouin zone
       k-points in crystal coordinates                weights
   0:     0.05000000    0.05000000   -0.05000000          6/1000
   1:     0.05000000    0.05000000    0.05000000          2/1000
   2:     0.15000000   -0.05000000   -0.05000000          6/1000
   3:     0.15000000    0.05000000   -0.15000000         12/1000
   4:     0.15000000    0.05000000   -0.05000000         12/1000
   5:     0.15000000    0.05000000    0.05000000          6/1000
   6:     0.15000000    0.15000000   -0.15000000          6/1000
   7:     0.15000000    0.15000000   -0.05000000          6/1000
   8:     0.15000000    0.15000000    0.05000000          6/1000
   9:     0.15000000    0.15000000    0.15000000          2/1000
          ...
 109:     0.45000000    0.45000000    0.45000000          2/1000

Wave functions: Plane wave expansion
  Cutoff energy: 500.000 eV
  Number of coefficients (min, max): 1929, 1974
  Pulay-stress correction: 0.000000 eV/Ang^3 (de/decut=0.000000)
  Using FFTW library
  Eigensolver: None  MatrixOperator buffer_size: default value or 
                              see value of nblock in input file
Diagonalizer layout: Serial LAPACKOrthonormalizer layout: Serial LAPACK 

Davidson(niter=1, smin=None, normalize=True) 

Densities:
  Coarse grid: 20*20*20 grid
  Fine grid: 40*40*40 grid
  Total Charge: 0.000000 

Density mixing:
  Method: sum
  Backend: pulay
  Linear mixing parameter: 0.05
  Mixing with 5 old densities
  Damping of long wave oscillations: 50 

Hamiltonian:
  XC and Coulomb potentials evaluated on a 40*40*40 grid
  Using the PBE Exchange-Correlation functional
 

Memory estimate:
  Process memory now: 215.20 MiB
  Calculator: 25.00 MiB
    Density: 3.95 MiB
      Arrays: 2.14 MiB
      Localized functions: 1.20 MiB
      Mixer: 0.61 MiB
    Hamiltonian: 1.61 MiB
      Arrays: 1.59 MiB
      XC: 0.00 MiB
      Poisson: 0.00 MiB
      vbar: 0.02 MiB
    Wavefunctions: 19.44 MiB
      Arrays psit_nG: 11.93 MiB
      Eigensolver: 2.81 MiB
      Projections: 0.87 MiB
      Projectors: 1.34 MiB
      Overlap op: 2.05 MiB
      PW-descriptor: 0.44 MiB

Total number of cores used: 32
Parallelization over k-points and spin: 32

Number of atoms: 8
Number of atomic orbitals: 72
Number of bands in calculation: 66
Bands to converge: occupied states only
Number of valence electrons: 64

... initialized

Initializing position-dependent things.

Density initialized from atomic densities
Creating initial wave functions:
  66 bands from LCAO basis set

                             
                             
                             
                             
                             
           Fe                
         Fe     Fe           
             Fe              
              Fe             
           Fe     Fe         
                Fe           
                             
                             
                             
                             
                             

Positions:
   0 Fe     0.000003    0.000003    0.000003
   1 Fe     1.339003    1.339003   -1.339006
   2 Fe     1.339003   -1.339006    1.339003
   3 Fe     2.678003   -0.000006   -0.000006
   4 Fe    -1.339006    1.339003    1.339003
   5 Fe    -0.000006    2.678003   -0.000006
   6 Fe    -0.000006   -0.000006    2.678003
   7 Fe     1.338994    1.338994    1.338994

Unit cell:
           periodic     x           y           z      points  spacing
  1. axis:    yes   -2.678016    2.678000    2.678000    20     0.1894
  2. axis:    yes    2.678000   -2.678016    2.678000    20     0.1894
  3. axis:    yes    2.678000    2.678000   -2.678016    20     0.1894

  Lengths:   4.638442   4.638442   4.638442
  Angles:  109.471386 109.471386 109.471386

Effective grid spacing dv^(1/3) = 0.2126

                     log10-error:    total        iterations:
           time      wfs    density  energy       fermi  poisson  magmom
iter:   1  17:09:13  +2.23   +inf   -68.614815    32              +15.2850
iter:   2  17:09:15  +0.41   +inf   -69.322247    2               +15.2515
iter:   3  17:09:17  -0.63   +inf   -69.441647    2               +15.2442
iter:   4  17:09:20  -0.64  -1.38   -69.687228    4               +14.8948
iter:   5  17:09:23  -0.25  -1.42   -69.343033    34              +15.1163
iter:   6  17:09:26  -1.46  -1.78   -69.592173    4               +15.1468
iter:   7  17:09:28  -0.88  -1.91   -69.935036    3               +14.9959
iter:   8  17:09:31  -1.58  -2.57   -69.943383    3               +15.0012
iter:   9  17:09:34  -2.36  -2.87   -69.949193    3               +15.0189
iter:  10  17:09:37  -2.34  -2.80   -69.948275    3               +15.0097
iter:  11  17:09:39  -3.08  -2.87   -69.952364    3               +15.0343
iter:  12  17:09:42  -2.89  -2.71   -69.949151    3               +14.9599
iter:  13  17:09:45  -3.89  -3.02   -69.949866    2               +14.9637
iter:  14  17:09:47  -4.02  -3.14   -69.949939    2               +14.9574
iter:  15  17:09:50  -4.50  -3.12   -69.950713    2               +14.9467
iter:  16  17:09:53  -3.38  -2.83   -69.948818    2               +14.9107
iter:  17  17:09:56  -3.71  -3.72   -69.949161    2               +14.9048
iter:  18  17:09:58  -4.46  -3.73   -69.948901    2               +14.9099
iter:  19  17:10:01  -4.64  -3.84   -69.948738    2               +14.9091
iter:  20  17:10:04  -3.99  -3.79   -69.948636    2               +14.9141
iter:  21  17:10:06  -4.47  -3.82   -69.948672    2               +14.9113
iter:  22  17:10:09  -5.18  -4.03   -69.948662    2               +14.9051
iter:  23  17:10:12  -5.11  -4.17   -69.948616    2               +14.9026
iter:  24  17:10:15  -5.73  -4.30   -69.948559    2               +14.8993
iter:  25  17:10:17  -6.50  -4.26   -69.948554    2               +14.8993
iter:  26  17:10:20  -6.79  -4.47   -69.948556    2               +14.8998
iter:  27  17:10:23  -7.15  -4.62   -69.948552    2               +14.9004
iter:  28  17:10:26  -5.59  -4.72   -69.948510    2               +14.8999
iter:  29  17:10:28  -5.78  -4.80   -69.948519    2               +14.9000
iter:  30  17:10:31  -6.90  -4.75   -69.948540    2               +14.9009
iter:  31  17:10:34  -6.50  -4.73   -69.948550    2               +14.9009
iter:  32  17:10:36  -6.32  -4.71   -69.948529    2               +14.9003
iter:  33  17:10:39  -6.73  -4.77   -69.948515    2               +14.9000
iter:  34  17:10:42  -6.80  -4.77   -69.948522    1               +14.9000
iter:  35  17:10:45  -6.88  -4.76   -69.948530    2               +14.9016
iter:  36  17:10:47  -6.77  -4.51   -69.948527    1               +14.9007
iter:  37  17:10:50  -6.79  -4.77   -69.948544    2               +14.9027
iter:  38  17:10:53  -6.46  -4.29   -69.948516    2               +14.9000
iter:  39  17:10:55  -7.41  -5.15   -69.948505    2               +14.8996

Converged after 39 iterations.

Dipole moment: (-0.000216, -0.000216, -0.000216) |e|*Ang

Total magnetic moment: 14.899643
Local magnetic moments:
   0 Fe 1.908412
   1 Fe 1.908412
   2 Fe 1.908412
   3 Fe 1.908412
   4 Fe 1.908412
   5 Fe 1.908412
   6 Fe 1.908412
   7 Fe 1.908412

Energy contributions relative to reference atoms: (reference = -276955.636799)

Kinetic:       +143.381466
Potential:     -117.971786
External:        +0.000000
XC:             -96.300982
Entropy (-ST):   -0.243745
Local:           +1.064670
--------------------------
Free energy:    -70.070378
Extrapolated:   -69.948505

Spin contamination: 0.274407 electrons
Fermi level: 12.89174

Warning: Showing only first 2 kpts
                      Up                     Down
 Kpt  Band  Eigenvalues  Occupancy  Eigenvalues  Occupancy
  0    30     12.03870    0.00600     14.20251    0.00000
  0    31     12.03877    0.00600     14.25778    0.00000
  0    32     12.68755    0.00531     14.59003    0.00000
  0    33     12.68853    0.00530     14.59004    0.00000

  1    30     12.02828    0.00200     14.20861    0.00000
  1    31     12.02828    0.00200     14.20861    0.00000
  1    32     12.42055    0.00198     14.57587    0.00000
  1    33     12.42055    0.00198     14.57587    0.00000



Forces in eV/Ang:
  0 Fe   -0.00000   -0.00000   -0.00000
  1 Fe   -0.00000   -0.00000    0.00000
  2 Fe   -0.00000    0.00000   -0.00000
  3 Fe   -0.00000    0.00000    0.00000
  4 Fe    0.00000   -0.00000   -0.00000
  5 Fe    0.00000   -0.00000    0.00000
  6 Fe    0.00000    0.00000   -0.00000
  7 Fe    0.00000    0.00000    0.00000

Stress tensor:
    -0.315326     0.000051     0.000051
     0.000051    -0.315326     0.000051
     0.000051     0.000051    -0.315326
Writing to fecu_id1_relaxed.gpw (mode='')

System changes: positions, cell 

Initialize ...

Fe-setup:
  name: Iron
  id: 37abbd8d6c3c35915a9b583b742da910
  Z: 26
  valence: 8
  core: 18
  charge: 0.0
  file: /home/davidkl/gpaw-setups-0.9.20000/Fe.PBE.gz
  cutoffs: 1.06(comp), 2.06(filt), 2.67(core), lmax=2
  valence states:
                energy  radius
    4s(2.00)    -5.291   1.164
    4p(0.00)    -1.326   1.058
    3d(6.00)    -7.505   1.058
    *s          21.920   1.164
    *p          25.885   1.058
    *d          19.706   1.058

  Using partial waves for Fe as LCAO basis

Reference energy: -276955.636799

Spin-polarized calculation.
Magnetic moment:  17.600000

Occupation numbers:
  Fermi-Dirac: width=0.1000 eV

Convergence criteria:
  Maximum total energy change: 0.0005 eV / electron
  Maximum integral of absolute density change: 0.0001 electrons
  Maximum integral of absolute eigenstate change: 4e-08 eV^2
  Maximum number of iterations: 333

Symmetries present (total): 6

  ( 1  0  0)  ( 1  0  0)  ( 0  1  0)  ( 0  1  0)  ( 0  0  1)  ( 0  0  1)
  ( 0  1  0)  ( 0  0  1)  ( 1  0  0)  ( 0  0  1)  ( 1  0  0)  ( 0  1  0)
  ( 0  0  1)  ( 0  1  0)  ( 0  0  1)  ( 1  0  0)  ( 0  1  0)  ( 1  0  0)

1000 k-points: 10 x 10 x 10 Monkhorst-Pack grid
110 k-points in the irreducible part of the Brillouin zone
       k-points in crystal coordinates                weights
   0:     0.05000000    0.05000000   -0.05000000          6/1000
   1:     0.05000000    0.05000000    0.05000000          2/1000
   2:     0.15000000   -0.05000000   -0.05000000          6/1000
   3:     0.15000000    0.05000000   -0.15000000         12/1000
   4:     0.15000000    0.05000000   -0.05000000         12/1000
   5:     0.15000000    0.05000000    0.05000000          6/1000
   6:     0.15000000    0.15000000   -0.15000000          6/1000
   7:     0.15000000    0.15000000   -0.05000000          6/1000
   8:     0.15000000    0.15000000    0.05000000          6/1000
   9:     0.15000000    0.15000000    0.15000000          2/1000
          ...
 109:     0.45000000    0.45000000    0.45000000          2/1000

Wave functions: Plane wave expansion
  Cutoff energy: 500.000 eV
  Number of coefficients (min, max): 1946, 1994
  Pulay-stress correction: 0.000000 eV/Ang^3 (de/decut=0.000000)
  Using FFTW library
  Eigensolver: None  MatrixOperator buffer_size: default value or 
                              see value of nblock in input file
Diagonalizer layout: Serial LAPACKOrthonormalizer layout: Serial LAPACK 

Davidson(niter=1, smin=None, normalize=True) 

Densities:
  Coarse grid: 20*20*20 grid
  Fine grid: 40*40*40 grid
  Total Charge: 0.000000 

Density mixing:
  Method: sum
  Backend: pulay
  Linear mixing parameter: 0.05
  Mixing with 5 old densities
  Damping of long wave oscillations: 50 

Hamiltonian:
  XC and Coulomb potentials evaluated on a 40*40*40 grid
  Using the PBE Exchange-Correlation functional
 

Memory estimate:
  Process memory now: 219.88 MiB
  Calculator: 25.18 MiB
    Density: 3.95 MiB
      Arrays: 2.14 MiB
      Localized functions: 1.20 MiB
      Mixer: 0.61 MiB
    Hamiltonian: 1.61 MiB
      Arrays: 1.59 MiB
      XC: 0.00 MiB
      Poisson: 0.00 MiB
      vbar: 0.02 MiB
    Wavefunctions: 19.63 MiB
      Arrays psit_nG: 12.05 MiB
      Eigensolver: 2.83 MiB
      Projections: 0.87 MiB
      Projectors: 1.36 MiB
      Overlap op: 2.07 MiB
      PW-descriptor: 0.44 MiB

Total number of cores used: 32
Parallelization over k-points and spin: 32

Number of atoms: 8
Number of atomic orbitals: 72
Number of bands in calculation: 66
Bands to converge: occupied states only
Number of valence electrons: 64

... initialized

Initializing position-dependent things.

Density initialized from atomic densities
Creating initial wave functions:
  66 bands from LCAO basis set

                             
                             
                             
                             
                             
           Fe                
         Fe     Fe           
             Fe              
              Fe             
           Fe     Fe         
                Fe           
                             
                             
                             
                             
                             

Positions:
   0 Fe     0.000003    0.000003    0.000003
   1 Fe     1.345503    1.345503   -1.345508
   2 Fe     1.345503   -1.345508    1.345503
   3 Fe     2.691003   -0.000008   -0.000008
   4 Fe    -1.345508    1.345503    1.345503
   5 Fe    -0.000008    2.691003   -0.000008
   6 Fe    -0.000008   -0.000008    2.691003
   7 Fe     1.345492    1.345492    1.345492

Unit cell:
           periodic     x           y           z      points  spacing
  1. axis:    yes   -2.691022    2.691000    2.691000    20     0.1903
  2. axis:    yes    2.691000   -2.691022    2.691000    20     0.1903
  3. axis:    yes    2.691000    2.691000   -2.691022    20     0.1903

  Lengths:   4.660961   4.660961   4.660961
  Angles:  109.471440 109.471440 109.471440

Effective grid spacing dv^(1/3) = 0.2136

                     log10-error:    total        iterations:
           time      wfs    density  energy       fermi  poisson  magmom
iter:   1  17:11:13  +2.23   +inf   -68.967428    34              +15.4305
iter:   2  17:11:16  +0.41   +inf   -69.672670    2               +15.3975
iter:   3  17:11:18  -0.63   +inf   -69.791174    2               +15.3904
iter:   4  17:11:21  -0.65  -1.38   -70.033185    3               +15.0493
iter:   5  17:11:23  -0.26  -1.43   -69.700417    33              +15.2831
iter:   6  17:11:26  -1.48  -1.78   -69.942583    4               +15.3229
iter:   7  17:11:29  -0.91  -1.92   -70.282963    3               +15.2022
iter:   8  17:11:32  -1.61  -2.58   -70.290787    3               +15.2104
iter:   9  17:11:34  -2.40  -2.90   -70.296134    3               +15.2261
iter:  10  17:11:37  -2.37  -2.82   -70.295672    3               +15.2164
iter:  11  17:11:40  -3.10  -2.89   -70.299213    3               +15.2368
iter:  12  17:11:43  -2.94  -2.73   -70.296668    3               +15.1803
iter:  13  17:11:45  -3.96  -3.07   -70.297211    2               +15.1800
iter:  14  17:11:48  -4.11  -3.16   -70.297221    2               +15.1772
iter:  15  17:11:51  -4.42  -3.18   -70.296296    2               +15.1545
iter:  16  17:11:54  -3.90  -3.05   -70.295536    3               +15.1457
iter:  17  17:11:56  -4.35  -3.58   -70.295741    2               +15.1437
iter:  18  17:11:59  -5.39  -3.98   -70.295609    2               +15.1412
iter:  19  17:12:02  -5.18  -4.03   -70.295764    2               +15.1431
iter:  20  17:12:05  -4.37  -4.02   -70.295819    2               +15.1388
iter:  21  17:12:07  -4.89  -4.17   -70.295751    2               +15.1345
iter:  22  17:12:10  -4.99  -3.84   -70.295769    2               +15.1386
iter:  23  17:12:13  -5.03  -4.35   -70.295940    2               +15.1410
iter:  24  17:12:16  -5.62  -4.37   -70.295965    2               +15.1401
iter:  25  17:12:18  -6.18  -4.46   -70.295959    2               +15.1397
iter:  26  17:12:21  -6.30  -4.51   -70.295941    2               +15.1379
iter:  27  17:12:24  -6.24  -4.59   -70.295942    2               +15.1376
iter:  28  17:12:27  -6.59  -4.52   -70.295942    2               +15.1381
iter:  29  17:12:29  -6.61  -4.78   -70.295966    2               +15.1393
iter:  30  17:12:32  -7.37  -4.55   -70.295969    2               +15.1390
iter:  31  17:12:35  -7.61  -4.57   -70.295969    1               +15.1389

Converged after 31 iterations.

Dipole moment: (-0.000218, -0.000218, -0.000218) |e|*Ang

Total magnetic moment: 15.138882
Local magnetic moments:
   0 Fe 1.942455
   1 Fe 1.942448
   2 Fe 1.942448
   3 Fe 1.942448
   4 Fe 1.942448
   5 Fe 1.942448
   6 Fe 1.942448
   7 Fe 1.942455

Energy contributions relative to reference atoms: (reference = -276955.636799)

Kinetic:       +134.332327
Potential:     -110.572578
External:        +0.000000
XC:             -94.907491
Entropy (-ST):   -0.244757
Local:           +0.974151
--------------------------
Free energy:    -70.418348
Extrapolated:   -70.295969

Spin contamination: 0.289146 electrons
Fermi level: 12.63896

Warning: Showing only first 2 kpts
                      Up                     Down
 Kpt  Band  Eigenvalues  Occupancy  Eigenvalues  Occupancy
  0    30     11.77455    0.00600     13.97698    0.00000
  0    31     11.77463    0.00600     14.03103    0.00000
  0    32     12.43052    0.00534     14.35520    0.00000
  0    33     12.43150    0.00533     14.35521    0.00000

  1    30     11.76415    0.00200     13.98278    0.00000
  1    31     11.76415    0.00200     13.98278    0.00000
  1    32     12.16654    0.00198     14.34115    0.00000
  1    33     12.16654    0.00198     14.34115    0.00000



Forces in eV/Ang:
  0 Fe    0.00000    0.00000    0.00000
  1 Fe    0.00000    0.00000   -0.00000
  2 Fe    0.00000   -0.00000    0.00000
  3 Fe    0.00000   -0.00000   -0.00000
  4 Fe   -0.00000    0.00000    0.00000
  5 Fe   -0.00000    0.00000   -0.00000
  6 Fe   -0.00000   -0.00000    0.00000
  7 Fe   -0.00000   -0.00000   -0.00000

Stress tensor:
    -0.278968     0.000041     0.000041
     0.000041    -0.278968     0.000041
     0.000041     0.000041    -0.278968
Writing to fecu_id1_relaxed.gpw (mode='')

System changes: positions, cell 

Initialize ...

Fe-setup:
  name: Iron
  id: 37abbd8d6c3c35915a9b583b742da910
  Z: 26
  valence: 8
  core: 18
  charge: 0.0
  file: /home/davidkl/gpaw-setups-0.9.20000/Fe.PBE.gz
  cutoffs: 1.06(comp), 2.06(filt), 2.67(core), lmax=2
  valence states:
                energy  radius
    4s(2.00)    -5.291   1.164
    4p(0.00)    -1.326   1.058
    3d(6.00)    -7.505   1.058
    *s          21.920   1.164
    *p          25.885   1.058
    *d          19.706   1.058

  Using partial waves for Fe as LCAO basis

Reference energy: -276955.636799

Spin-polarized calculation.
Magnetic moment:  17.600000

Occupation numbers:
  Fermi-Dirac: width=0.1000 eV

Convergence criteria:
  Maximum total energy change: 0.0005 eV / electron
  Maximum integral of absolute density change: 0.0001 electrons
  Maximum integral of absolute eigenstate change: 4e-08 eV^2
  Maximum number of iterations: 333

Symmetries present (total): 6

  ( 1  0  0)  ( 1  0  0)  ( 0  1  0)  ( 0  1  0)  ( 0  0  1)  ( 0  0  1)
  ( 0  1  0)  ( 0  0  1)  ( 1  0  0)  ( 0  0  1)  ( 1  0  0)  ( 0  1  0)
  ( 0  0  1)  ( 0  1  0)  ( 0  0  1)  ( 1  0  0)  ( 0  1  0)  ( 1  0  0)

1000 k-points: 10 x 10 x 10 Monkhorst-Pack grid
110 k-points in the irreducible part of the Brillouin zone
       k-points in crystal coordinates                weights
   0:     0.05000000    0.05000000   -0.05000000          6/1000
   1:     0.05000000    0.05000000    0.05000000          2/1000
   2:     0.15000000   -0.05000000   -0.05000000          6/1000
   3:     0.15000000    0.05000000   -0.15000000         12/1000
   4:     0.15000000    0.05000000   -0.05000000         12/1000
   5:     0.15000000    0.05000000    0.05000000          6/1000
   6:     0.15000000    0.15000000   -0.15000000          6/1000
   7:     0.15000000    0.15000000   -0.05000000          6/1000
   8:     0.15000000    0.15000000    0.05000000          6/1000
   9:     0.15000000    0.15000000    0.15000000          2/1000
          ...
 109:     0.45000000    0.45000000    0.45000000          2/1000

Wave functions: Plane wave expansion
  Cutoff energy: 500.000 eV
  Number of coefficients (min, max): 1958, 2023
  Pulay-stress correction: 0.000000 eV/Ang^3 (de/decut=0.000000)
  Using FFTW library
  Eigensolver: None  MatrixOperator buffer_size: default value or 
                              see value of nblock in input file
Diagonalizer layout: Serial LAPACKOrthonormalizer layout: Serial LAPACK 

Davidson(niter=1, smin=None, normalize=True) 

Densities:
  Coarse grid: 20*20*20 grid
  Fine grid: 40*40*40 grid
  Total Charge: 0.000000 

Density mixing:
  Method: sum
  Backend: pulay
  Linear mixing parameter: 0.05
  Mixing with 5 old densities
  Damping of long wave oscillations: 50 

Hamiltonian:
  XC and Coulomb potentials evaluated on a 40*40*40 grid
[...]
  Method: sum
  Backend: pulay
  Linear mixing parameter: 0.05
  Mixing with 5 old densities
  Damping of long wave oscillations: 50 

Hamiltonian:
  XC and Coulomb potentials evaluated on a 42*42*42 grid
  Using the PBE Exchange-Correlation functional
 

Memory estimate:
  Process memory now: 226.70 MiB
  Calculator: 28.94 MiB
    Density: 4.57 MiB
      Arrays: 2.47 MiB
      Localized functions: 1.39 MiB
      Mixer: 0.71 MiB
    Hamiltonian: 1.87 MiB
      Arrays: 1.84 MiB
      XC: 0.00 MiB
      Poisson: 0.00 MiB
      vbar: 0.03 MiB
    Wavefunctions: 22.50 MiB
      Arrays psit_nG: 13.99 MiB
      Eigensolver: 3.18 MiB
      Projections: 0.87 MiB
      Projectors: 1.56 MiB
      Overlap op: 2.40 MiB
      PW-descriptor: 0.51 MiB

Total number of cores used: 32
Parallelization over k-points and spin: 32

Number of atoms: 8
Number of atomic orbitals: 72
Number of bands in calculation: 66
Bands to converge: occupied states only
Number of valence electrons: 64

... initialized

Initializing position-dependent things.

Density initialized from atomic densities
Creating initial wave functions:
  66 bands from LCAO basis set

                             
                             
                             
                             
                             
           Fe                
         Fe     Fe           
             Fe              
              Fe             
           Fe     Fe         
                Fe           
                             
                             
                             
                             
                             

Positions:
   0 Fe     0.000003    0.000003    0.000003
   1 Fe     1.410503    1.410503   -1.410571
   2 Fe     1.410503   -1.410571    1.410503
   3 Fe     2.821003   -0.000071   -0.000071
   4 Fe    -1.410571    1.410503    1.410503
   5 Fe    -0.000071    2.821003   -0.000071
   6 Fe    -0.000071   -0.000071    2.821003
   7 Fe     1.410429    1.410429    1.410429

Unit cell:
           periodic     x           y           z      points  spacing
  1. axis:    yes   -2.821147    2.821000    2.821000    21     0.1900
  2. axis:    yes    2.821000   -2.821147    2.821000    21     0.1900
  3. axis:    yes    2.821000    2.821000   -2.821147    21     0.1900

  Lengths:   4.886200   4.886200   4.886200
  Angles:  109.472631 109.472631 109.472631

Effective grid spacing dv^(1/3) = 0.2132

                     log10-error:    total        iterations:
           time      wfs    density  energy       fermi  poisson  magmom
iter:   1  17:26:54  +2.16   +inf   -70.595523    31              +16.7625
iter:   2  17:26:57  +0.38   +inf   -71.224321    2               +16.7338
iter:   3  17:27:00  -0.72   +inf   -71.325623    2               +16.7286
iter:   4  17:27:03  -0.74  -1.42   -71.580319    3               +16.5090
iter:   5  17:27:06  -0.45  -1.47   -71.444705    30              +16.8090
iter:   6  17:27:10  -1.76  -1.79   -71.645359    3               +16.9015
iter:   7  17:27:13  -1.27  -1.91   -71.998276    3               +17.0406
iter:   8  17:27:16  -1.82  -2.71   -72.003857    3               +17.0632
iter:   9  17:27:20  -2.71  -3.11   -72.006001    3               +17.0640
iter:  10  17:27:23  -2.70  -3.06   -72.007123    2               +17.0605
iter:  11  17:27:26  -3.16  -3.06   -72.007806    3               +17.0701
iter:  12  17:27:29  -3.22  -2.86   -72.007449    2               +17.0597
iter:  13  17:27:33  -3.51  -2.85   -72.010134    3               +17.0914
iter:  14  17:27:36  -4.37  -3.40   -72.010240    2               +17.0927
iter:  15  17:27:39  -4.56  -3.45   -72.010472    2               +17.0901
iter:  16  17:27:42  -3.69  -3.37   -72.010264    2               +17.1331
iter:  17  17:27:46  -4.27  -3.57   -72.010386    2               +17.1378
iter:  18  17:27:49  -5.06  -3.73   -72.010440    2               +17.1382
iter:  19  17:27:52  -4.69  -3.76   -72.010447    2               +17.1284
iter:  20  17:27:55  -5.16  -3.78   -72.010459    2               +17.1240
iter:  21  17:27:59  -5.15  -3.92   -72.010399    2               +17.1222
iter:  22  17:28:02  -5.28  -3.92   -72.010436    2               +17.1231
iter:  23  17:28:05  -6.41  -4.01   -72.010434    2               +17.1237
iter:  24  17:28:08  -5.69  -3.97   -72.010359    2               +17.1183
iter:  25  17:28:12  -5.67  -4.01   -72.010246    2               +17.1188
iter:  26  17:28:15  -5.16  -3.97   -72.010382    2               +17.1239
iter:  27  17:28:18  -5.27  -4.70   -72.010386    2               +17.1241
iter:  28  17:28:21  -6.10  -4.60   -72.010382    2               +17.1241
iter:  29  17:28:25  -5.91  -4.78   -72.010392    2               +17.1244
iter:  30  17:28:28  -6.28  -4.55   -72.010401    2               +17.1252
iter:  31  17:28:31  -6.54  -4.18   -72.010392    2               +17.1250
iter:  32  17:28:34  -7.56  -4.27   -72.010391    1               +17.1250

Converged after 32 iterations.

Dipole moment: (-0.000241, -0.000241, -0.000241) |e|*Ang

Total magnetic moment: 17.124972
Local magnetic moments:
   0 Fe 2.209987
   1 Fe 2.209985
   2 Fe 2.209985
   3 Fe 2.209989
   4 Fe 2.209985
   5 Fe 2.209989
   6 Fe 2.209989
   7 Fe 2.210013

Energy contributions relative to reference atoms: (reference = -276955.636799)

Kinetic:        +64.587654
Potential:      -54.334727
External:        +0.000000
XC:             -83.006525
Entropy (-ST):   -0.247297
Local:           +0.866855
--------------------------
Free energy:    -72.134039
Extrapolated:   -72.010391

Spin contamination: 0.445829 electrons
Fermi level: 10.32733

Warning: Showing only first 2 kpts
                      Up                     Down
 Kpt  Band  Eigenvalues  Occupancy  Eigenvalues  Occupancy
  0    30      9.42423    0.00600     11.91389    0.00000
  0    31      9.42456    0.00600     11.95821    0.00000
  0    32     10.13272    0.00525     12.21354    0.00000
  0    33     10.13403    0.00524     12.21381    0.00000

  1    30      9.41660    0.00200     11.91927    0.00000
  1    31      9.41660    0.00200     11.91927    0.00000
  1    32      9.90755    0.00197     12.20254    0.00000
  1    33      9.90756    0.00197     12.20255    0.00000



Forces in eV/Ang:
  0 Fe   -0.00000   -0.00000   -0.00000
  1 Fe    0.00000    0.00000   -0.00000
  2 Fe    0.00000   -0.00000    0.00000
  3 Fe    0.00000    0.00000    0.00000
  4 Fe   -0.00000    0.00000    0.00000
  5 Fe    0.00000    0.00000    0.00000
  6 Fe    0.00000    0.00000    0.00000
  7 Fe    0.00000    0.00000    0.00000

Stress tensor:
    -0.018364     0.000001     0.000001
     0.000001    -0.018364     0.000001
     0.000001     0.000001    -0.018364
Writing to fecu_id1_relaxed.gpw (mode='')

System changes: positions, cell 

Initialize ...

Fe-setup:
  name: Iron
  id: 37abbd8d6c3c35915a9b583b742da910
  Z: 26
  valence: 8
  core: 18
  charge: 0.0
  file: /home/davidkl/gpaw-setups-0.9.20000/Fe.PBE.gz
  cutoffs: 1.06(comp), 2.06(filt), 2.67(core), lmax=2
  valence states:
                energy  radius
    4s(2.00)    -5.291   1.164
    4p(0.00)    -1.326   1.058
    3d(6.00)    -7.505   1.058
    *s          21.920   1.164
    *p          25.885   1.058
    *d          19.706   1.058

  Using partial waves for Fe as LCAO basis

Reference energy: -276955.636799

Spin-polarized calculation.
Magnetic moment:  17.600000

Occupation numbers:
  Fermi-Dirac: width=0.1000 eV

Convergence criteria:
  Maximum total energy change: 0.0005 eV / electron
  Maximum integral of absolute density change: 0.0001 electrons
  Maximum integral of absolute eigenstate change: 4e-08 eV^2
  Maximum number of iterations: 333

Symmetries present (total): 6

  ( 1  0  0)  ( 1  0  0)  ( 0  1  0)  ( 0  1  0)  ( 0  0  1)  ( 0  0  1)
  ( 0  1  0)  ( 0  0  1)  ( 1  0  0)  ( 0  0  1)  ( 1  0  0)  ( 0  1  0)
  ( 0  0  1)  ( 0  1  0)  ( 0  0  1)  ( 1  0  0)  ( 0  1  0)  ( 1  0  0)

1000 k-points: 10 x 10 x 10 Monkhorst-Pack grid
110 k-points in the irreducible part of the Brillouin zone
       k-points in crystal coordinates                weights
   0:     0.05000000    0.05000000   -0.05000000          6/1000
   1:     0.05000000    0.05000000    0.05000000          2/1000
   2:     0.15000000   -0.05000000   -0.05000000          6/1000
   3:     0.15000000    0.05000000   -0.15000000         12/1000
   4:     0.15000000    0.05000000   -0.05000000         12/1000
   5:     0.15000000    0.05000000    0.05000000          6/1000
   6:     0.15000000    0.15000000   -0.15000000          6/1000
   7:     0.15000000    0.15000000   -0.05000000          6/1000
   8:     0.15000000    0.15000000    0.05000000          6/1000
   9:     0.15000000    0.15000000    0.15000000          2/1000
          ...
 109:     0.45000000    0.45000000    0.45000000          2/1000

Wave functions: Plane wave expansion
  Cutoff energy: 500.000 eV
  Number of coefficients (min, max): 2295, 2334
  Pulay-stress correction: 0.000000 eV/Ang^3 (de/decut=0.000000)
  Using FFTW library
  Eigensolver: None  MatrixOperator buffer_size: default value or 
                              see value of nblock in input file
Diagonalizer layout: Serial LAPACKOrthonormalizer layout: Serial LAPACK 

Davidson(niter=1, smin=None, normalize=True) 

Densities:
  Coarse grid: 21*21*21 grid
  Fine grid: 42*42*42 grid
  Total Charge: 0.000000 

Density mixing:
  Method: sum
  Backend: pulay
  Linear mixing parameter: 0.05
  Mixing with 5 old densities
  Damping of long wave oscillations: 50 

Hamiltonian:
  XC and Coulomb potentials evaluated on a 42*42*42 grid
  Using the PBE Exchange-Correlation functional
 

Memory estimate:
  Process memory now: 226.95 MiB
  Calculator: 29.11 MiB
    Density: 4.57 MiB
      Arrays: 2.47 MiB
      Localized functions: 1.39 MiB
      Mixer: 0.71 MiB
    Hamiltonian: 1.87 MiB
      Arrays: 1.84 MiB
      XC: 0.00 MiB
      Poisson: 0.00 MiB
      vbar: 0.03 MiB
    Wavefunctions: 22.67 MiB
      Arrays psit_nG: 14.10 MiB
      Eigensolver: 3.20 MiB
      Projections: 0.87 MiB
      Projectors: 1.58 MiB
      Overlap op: 2.42 MiB
      PW-descriptor: 0.51 MiB

Total number of cores used: 32
Parallelization over k-points and spin: 32

Number of atoms: 8
Number of atomic orbitals: 72
Number of bands in calculation: 66
Bands to converge: occupied states only
Number of valence electrons: 64

... initialized

Initializing position-dependent things.

Density initialized from atomic densities
Creating initial wave functions:
  66 bands from LCAO basis set

                             
                             
                             
                             
                             
           Fe                
         Fe     Fe           
             Fe              
              Fe             
           Fe     Fe         
                Fe           
                             
                             
                             
                             
                             

Positions:
   0 Fe     0.000003    0.000003    0.000003
   1 Fe     1.416775    1.416775   -1.416851
   2 Fe     1.416775   -1.416851    1.416775
   3 Fe     2.833547   -0.000079   -0.000079
   4 Fe    -1.416851    1.416775    1.416775
   5 Fe    -0.000079    2.833547   -0.000079
   6 Fe    -0.000079   -0.000079    2.833547
   7 Fe     1.416693    1.416693    1.416693

Unit cell:
           periodic     x           y           z      points  spacing
  1. axis:    yes   -2.833707    2.833544    2.833544    21     0.1908
  2. axis:    yes    2.833544   -2.833707    2.833544    21     0.1908
  3. axis:    yes    2.833544    2.833544   -2.833707    21     0.1908

  Lengths:   4.907936   4.907936   4.907936
  Angles:  109.472776 109.472776 109.472776

Effective grid spacing dv^(1/3) = 0.2142

                     log10-error:    total        iterations:
           time      wfs    density  energy       fermi  poisson  magmom
iter:   1  17:28:54  +2.15   +inf   -70.598073    34              +16.8720
iter:   2  17:28:57  +0.37   +inf   -71.216873    2               +16.8428
iter:   3  17:29:00  -0.73   +inf   -71.316227    2               +16.8377
iter:   4  17:29:03  -0.75  -1.43   -71.577571    3               +16.6274
iter:   5  17:29:06  -0.47  -1.47   -71.465017    34              +16.9308
iter:   6  17:29:09  -1.80  -1.79   -71.662057    3               +17.0228
iter:   7  17:29:13  -1.33  -1.91   -72.020270    3               +17.1865
iter:   8  17:29:16  -1.84  -2.73   -72.025734    3               +17.2063
iter:   9  17:29:19  -2.73  -3.13   -72.027696    3               +17.2051
iter:  10  17:29:23  -2.72  -3.12   -72.028835    2               +17.2050
iter:  11  17:29:26  -2.91  -3.07   -72.030047    3               +17.2355
iter:  12  17:29:29  -3.29  -2.77   -72.030327    2               +17.2320
iter:  13  17:29:33  -2.59  -2.78   -72.031863    3               +17.1914
iter:  14  17:29:36  -2.50  -3.01   -72.037477    3               +17.1374
iter:  15  17:29:39  -2.03  -2.46   -72.032217    3               +17.2200
iter:  16  17:29:42  -3.95  -2.65   -72.032683    2               +17.2178
iter:  17  17:29:46  -4.29  -2.82   -72.031552    2               +17.2131
iter:  18  17:29:49  -4.60  -3.35   -72.030889    2               +17.2182
iter:  19  17:29:52  -4.53  -3.45   -72.030698    2               +17.2260
iter:  20  17:29:56  -4.46  -3.59   -72.030820    2               +17.2282
iter:  21  17:29:59  -3.89  -3.61   -72.031569    2               +17.2557
iter:  22  17:30:02  -4.14  -3.36   -72.031846    2               +17.2551
iter:  23  17:30:06  -4.89  -3.59   -72.031970    2               +17.2626
iter:  24  17:30:09  -5.15  -4.18   -72.031988    2               +17.2633
iter:  25  17:30:12  -5.88  -4.10   -72.032034    2               +17.2644
iter:  26  17:30:15  -5.95  -4.37   -72.032029    2               +17.2638
iter:  27  17:30:19  -6.98  -4.35   -72.032030    2               +17.2643
iter:  28  17:30:22  -6.79  -4.38   -72.032040    1               +17.2655
iter:  29  17:30:25  -6.19  -4.45   -72.032046    2               +17.2673
iter:  30  17:30:29  -6.37  -4.56   -72.032052    2               +17.2670
iter:  31  17:30:32  -7.50  -4.53   -72.032047    2               +17.2667

Converged after 31 iterations.

Dipole moment: (-0.000244, -0.000244, -0.000244) |e|*Ang

Total magnetic moment: 17.266699
Local magnetic moments:
   0 Fe 2.225499
   1 Fe 2.225488
   2 Fe 2.225488
   3 Fe 2.225492
   4 Fe 2.225488
   5 Fe 2.225492
   6 Fe 2.225492
   7 Fe 2.225516

Energy contributions relative to reference atoms: (reference = -276955.636799)

Kinetic:        +60.352120
Potential:      -50.839402
External:        +0.000000
XC:             -82.096383
Entropy (-ST):   -0.249842
Local:           +0.676539
--------------------------
Free energy:    -72.156968
Extrapolated:   -72.032047

Spin contamination: 0.461236 electrons
Fermi level: 10.12406

Warning: Showing only first 2 kpts
                      Up                     Down
 Kpt  Band  Eigenvalues  Occupancy  Eigenvalues  Occupancy
  0    30      9.22190    0.00600     11.72914    0.00000
  0    31      9.22225    0.00600     11.77184    0.00000
  0    32      9.93384    0.00522     12.02211    0.00000
  0    33      9.93518    0.00521     12.02242    0.00000

  1    30      9.21450    0.00200     11.73381    0.00000
  1    31      9.21450    0.00200     11.73381    0.00000
  1    32      9.71305    0.00197     12.01137    0.00000
  1    33      9.71305    0.00197     12.01137    0.00000



Forces in eV/Ang:
  0 Fe   -0.00000   -0.00000   -0.00000
  1 Fe   -0.00000   -0.00000   -0.00000
  2 Fe   -0.00000   -0.00000   -0.00000
  3 Fe    0.00000    0.00000    0.00000
  4 Fe   -0.00000   -0.00000   -0.00000
  5 Fe    0.00000    0.00000    0.00000
  6 Fe    0.00000    0.00000    0.00000
  7 Fe    0.00000    0.00000    0.00000

Stress tensor:
    -0.000782    -0.000009    -0.000009
    -0.000009    -0.000782    -0.000009
    -0.000009    -0.000009    -0.000782
Writing to fecu_id1_relaxed.gpw (mode='')

Writing to fecu_id1_relaxer_final.gpw (mode='')

Timing:                              incl.     excl.
-----------------------------------------------------------
Forces:                             25.750    25.750   1.3% ||
Hamiltonian:                         3.667     0.011   0.0% |
 Atomic:                             2.041     2.040   0.1% |
  XC Correction:                     0.000     0.000   0.0% |
 Calculate atomic Hamiltonians:      0.486     0.486   0.0% |
 Communicate:                        0.004     0.004   0.0% |
 Initialize Hamiltonian:             0.002     0.002   0.0% |
 Poisson:                            0.006     0.006   0.0% |
 XC 3D grid:                         1.117     1.117   0.1% |
LCAO initialization:                52.500     0.953   0.0% |
 LCAO eigensolver:                  21.811     0.009   0.0% |
  Calculate projections:             0.170     0.170   0.0% |
  DenseAtomicCorrection:             0.242     0.242   0.0% |
  Distribute overlap matrix:         0.006     0.006   0.0% |
  Orbital Layouts:                   0.502     0.502   0.0% |
  Potential matrix:                 19.982    19.982   1.0% |
  Sum over cells:                    0.899     0.899   0.0% |
 LCAO to grid:                      16.215    16.215   0.8% |
 Set positions (LCAO WFS):          13.521     0.003   0.0% |
  Basic WFS set positions:           0.035     0.035   0.0% |
  Basis functions set positions:     0.002     0.002   0.0% |
  TCI: Calculate S, T, P:           13.481    13.481   0.7% |
PWDescriptor:                        0.231     0.231   0.0% |
SCF-cycle:                        1641.478   227.573  11.9% |----|
 Davidson:                         949.945   469.883  24.6% |---------|
  calc. matrices:                  288.112   288.112  15.1% |-----|
  diagonalize:                      69.495    69.495   3.6% ||
  rotate_psi:                      122.456   122.456   6.4% |--|
 Density:                          101.565     0.014   0.0% |
  Atomic density matrices:           2.614     2.614   0.1% |
  Mix:                              21.450    21.450   1.1% |
  Multipole moments:                 0.195     0.195   0.0% |
  Pseudo density:                   77.292    74.225   3.9% |-|
   Symmetrize density:               3.068     3.068   0.2% |
 Hamiltonian:                       91.066     0.327   0.0% |
  Atomic:                           55.853    55.850   2.9% ||
   XC Correction:                    0.003     0.003   0.0% |
  Calculate atomic Hamiltonians:     1.186     1.186   0.1% |
  Communicate:                       0.109     0.109   0.0% |
  Poisson:                           0.172     0.172   0.0% |
  XC 3D grid:                       33.419    33.419   1.7% ||
 Orthonormalize:                     7.542     0.007   0.0% |
  Band Layouts:                      0.031     0.001   0.0% |
   Inverse Cholesky:                 0.030     0.030   0.0% |
  calc_s_matrix:                     1.053     1.053   0.1% |
  projections:                       5.379     5.379   0.3% |
  rotate_psi:                        1.071     1.071   0.1% |
 Subspace diag:                    263.787     0.359   0.0% |
  Band Layouts:                      7.113     0.071   0.0% |
   Diagonalize:                      6.978     6.978   0.4% |
   Distribute results:               0.064     0.064   0.0% |
  calc_h_matrix:                   138.343   138.343   7.2% |--|
  rotate_psi:                      117.971   117.971   6.2% |-|
Set symmetry:                        0.956     0.956   0.0% |
Stress:                            137.664     0.001   0.0% |
 Stress tensor:                    137.663   137.663   7.2% |--|
Other:                              50.057    50.057   2.6% ||
-----------------------------------------------------------
Total:                                      1912.302 100.0%

Memory usage: 227.41 MiB
Date: Thu Nov 29 17:30:44 2018
