
  ___ ___ ___ _ _ _  
 |   |   |_  | | | | 
 | | | | | . | | | | 
 |__ |  _|___|_____|  0.11.0.13004
 |___|_|             

User:  root@AsusN550
Date:  Tue Dec  4 13:16:36 2018
Arch:  x86_64
Pid:   10423
gpaw:  /usr/lib/python2.7/dist-packages/gpaw
_gpaw: /usr/lib/python2.7/dist-packages/_gpaw.x86_64-linux-gnu.so
ase:   /usr/lib/python2.7/dist-packages/ase (version 3.9.1.4567)
numpy: /usr/lib/python2.7/dist-packages/numpy (version 1.11.0)
scipy: /usr/lib/python2.7/dist-packages/scipy (version 0.17.0)
units: Angstrom and eV
cores: 1

Memory estimate
---------------
Process memory now: 55.65 MiB
Calculator  475.54 MiB
    Density  4.25 MiB
        Arrays  2.14 MiB
        Localized functions  1.51 MiB
        Mixer  0.61 MiB
    Hamiltonian  1.62 MiB
        Arrays  1.59 MiB
        XC  0.00 MiB
        Poisson  0.00 MiB
        vbar  0.04 MiB
    Wavefunctions  469.67 MiB
        Arrays psit_nG  399.25 MiB
        Eigensolver  2.62 MiB
        Projections  31.90 MiB
        Projectors  31.46 MiB
        Overlap op  1.88 MiB
        PW-descriptor  2.55 MiB
Memory usage: 169.15 MiB
============================================================
Timing:                               incl.     excl.
============================================================
Initialization:                       6.590     1.466  22.2% |--------|
 Hamiltonian:                         1.053     0.018   0.3% |
  Atomic:                             0.935     0.001   0.0% |
   XC Correction:                     0.934     0.934  14.2% |-----|
  Communicate energies:               0.000     0.000   0.0% |
  Initialize Hamiltonian:             0.000     0.000   0.0% |
  Poisson:                            0.000     0.000   0.0% |
  XC 3D grid:                         0.100     0.100   1.5% ||
 LCAO initialization:                 4.050     0.181   2.7% ||
  LCAO eigensolver:                   1.218     0.000   0.0% |
   Potential matrix:                  1.218     1.218  18.5% |------|
  Set positions (LCAO WFS):           2.651     0.004   0.1% |
   Basic WFS set positions:           0.001     0.001   0.0% |
   Basis functions set positions:     0.000     0.000   0.0% |
   TCI: Calculate S, T, P:            2.647     2.647  40.1% |---------------|
 PWDescriptor:                        0.021     0.021   0.3% |
Other:                                0.008     0.008   0.1% |
============================================================
Total:                                          6.598 100.0%
============================================================
date: Tue Dec  4 13:16:43 2018
