
  ___ ___ ___ _ _ _  
 |   |   |_  | | | | 
 | | | | | . | | | | 
 |__ |  _|___|_____|  1.4.0
 |___|_|             

User:   rasmus@AsusN550
Date:   Fri Nov 16 13:49:19 2018
Arch:   x86_64
Pid:    9585
Python: 3.6.3
gpaw:   /home/rasmus/anaconda3/lib/python3.6/site-packages/gpaw
_gpaw:  /home/rasmus/anaconda3/lib/python3.6/site-packages/
        _gpaw.cpython-36m-x86_64-linux-gnu.so
ase:    /home/rasmus/.local/lib/python3.6/site-packages/ase (version 3.16.2)
numpy:  /home/rasmus/.local/lib/python3.6/site-packages/numpy (version 1.15.1)
scipy:  /home/rasmus/.local/lib/python3.6/site-packages/scipy (version 1.1.0)
units:  Angstrom and eV
cores:  1

Input parameters:
  kpts: [6 6 6]
  mode: {ecut: 500.0,
         name: pw}
  nbands: -12
  occupations: {name: fermi-dirac,
                width: 0.1}
  spinpol: True
  xc: PBE

System changes: positions, numbers, cell, pbc, initial_charges, initial_magmoms 

Initialize ...

Cu-setup:
  name: Copper
  id: f1c4d45d90492f1bbfdcb091e8418fdf
  Z: 29
  valence: 11
  core: 18
  charge: 0.0
  file: /usr/share/gpaw-setups/Cu.PBE.gz
  cutoffs: 1.06(comp), 2.06(filt), 2.43(core), lmax=2
  valence states:
                energy  radius
    4s(1.00)    -4.609   1.164
    4p(0.00)    -0.698   1.164
    3d(10.00)    -5.039   1.058
    *s          22.603   1.164
    *p          26.513   1.164
    *d          22.172   1.058

  Using partial waves for Cu as LCAO basis

Fe-setup:
  name: Iron
  id: 37abbd8d6c3c35915a9b583b742da910
  Z: 26
  valence: 8
  core: 18
  charge: 0.0
  file: /usr/share/gpaw-setups/Fe.PBE.gz
  cutoffs: 1.06(comp), 2.06(filt), 2.67(core), lmax=2
  valence states:
                energy  radius
    4s(2.00)    -5.291   1.164
    4p(0.00)    -1.326   1.058
    3d(6.00)    -7.505   1.058
    *s          21.920   1.164
    *p          25.885   1.058
    *d          19.706   1.058

  Using partial waves for Fe as LCAO basis

Reference energy: -79640.906441

Spin-polarized calculation.
Magnetic moment: 0.000000

Occupation numbers:
  Fermi-Dirac: width=0.1000 eV

Convergence criteria:
  Maximum total energy change: 0.0005 eV / electron
  Maximum integral of absolute density change: 0.0001 electrons
  Maximum integral of absolute eigenstate change: 4e-08 eV^2
  Maximum number of iterations: 333

Symmetries present (total): 4

  ( 1  0  0)  ( 1  0  0)  (-1  0  0)  (-1  0  0)
  ( 0  1  0)  ( 0  0  1)  ( 0  0 -1)  ( 0 -1  0)
  ( 0  0  1)  ( 0  1  0)  ( 0 -1  0)  ( 0  0 -1)

216 k-points: 6 x 6 x 6 Monkhorst-Pack grid
63 k-points in the irreducible part of the Brillouin zone
       k-points in crystal coordinates                weights
   0:     0.08333333   -0.41666667   -0.41666667          2/216
   1:     0.08333333   -0.25000000   -0.41666667          4/216
   2:     0.08333333   -0.25000000   -0.25000000          2/216
   3:     0.08333333   -0.08333333   -0.41666667          4/216
   4:     0.08333333   -0.08333333   -0.25000000          4/216
   5:     0.08333333   -0.08333333   -0.08333333          2/216
   6:     0.08333333    0.08333333   -0.41666667          4/216
   7:     0.08333333    0.08333333   -0.25000000          4/216
   8:     0.08333333    0.08333333   -0.08333333          4/216
   9:     0.08333333    0.08333333    0.08333333          2/216
          ...
  62:     0.41666667    0.41666667    0.41666667          2/216

Wave functions: Plane wave expansion
  Cutoff energy: 500.000 eV
  Number of coefficients (min, max): 594, 610
  Pulay-stress correction: 0.000000 eV/Ang^3 (de/decut=0.000000)
  Using FFTW library
  ScaLapack parameters: grid=1x1, blocksize=None 

Eigensolver
   Davidson(niter=1, smin=None, normalize=True) 

Densities:
  Coarse grid: 24*12*12 grid
  Fine grid: 48*24*24 grid
  Total Charge: 0.000000 

Density mixing:
  Method: sum
  Backend: pulay
  Linear mixing parameter: 0.05
  Mixing with 5 old densities
  Damping of long wave oscillations: 50 

Hamiltonian:
  XC and Coulomb potentials evaluated on a 48*24*24 grid
  Using the PBE Exchange-Correlation functional
 

Memory estimate:
  Process memory now: 73.84 MiB
  Calculator: 35.52 MiB
    Density: 1.78 MiB
      Arrays: 0.92 MiB
      Localized functions: 0.59 MiB
      Mixer: 0.26 MiB
    Hamiltonian: 0.70 MiB
      Arrays: 0.69 MiB
      XC: 0.00 MiB
      Poisson: 0.00 MiB
      vbar: 0.01 MiB
    Wavefunctions: 33.04 MiB
      Arrays psit_nG: 24.63 MiB
      Eigensolver: 0.31 MiB
      Projections: 1.45 MiB
      Projectors: 6.08 MiB
      PW-descriptor: 0.57 MiB

Total number of cores used: 1

Number of atoms: 2
Number of atomic orbitals: 18
Number of bands in calculation: 21
Bands to converge: occupied states only
Number of valence electrons: 19

... initialized

Initializing position-dependent things.

Density initialized from atomic densities
Creating initial wave functions:
  18 bands from LCAO basis set
  3 bands from random numbers

                  
                  
                  
                  
         Cu       
                  
                  
       Fe         
                  
                  
                  
                  

Positions:
   0 Cu     0.000000    1.810000    1.810000    ( 0.0000,  0.0000,  0.0000)
   1 Fe     0.000000    0.000000    0.000000    ( 0.0000,  0.0000,  0.0000)

Unit cell:
           periodic     x           y           z      points  spacing
  1. axis:    yes    0.000000    3.620000    3.620000    24     0.1742
  2. axis:    yes    1.810000    0.000000    1.810000    12     0.1742
  3. axis:    yes    1.810000    1.810000    0.000000    12     0.1742

  Lengths:   5.119453   2.559727   2.559727
  Angles:   60.000000  60.000000  60.000000

Effective grid spacing dv^(1/3) = 0.1900

                     log10-error:    total        iterations:
           time      wfs    density  energy       fermi  poisson  magmom
iter:   1  13:49:32  +3.84   +inf   -19.989069    2               -0.0002
iter:   2  13:49:36  +0.08   +inf   -20.093669    2               -0.0000
iter:   3  13:49:41  -0.98   +inf   -20.106285    2               -0.0000
iter:   4  13:49:46  +0.61  -0.97   -12.750521    4               -0.0000
iter:   5  13:49:51  -0.81  -1.29   -12.265522    28              -0.0000
iter:   6  13:49:56  -0.20  -1.40   -12.066630    35              -0.0000
iter:   7  13:50:01  -2.06  -1.75   -12.012982    2               -0.0000
iter:   8  13:50:07  -2.35  -1.81   -11.937238    3               -0.0000
iter:   9  13:50:13  -1.86  -1.89   -11.861471    3               +0.0000
iter:  10  13:50:18  -2.22  -2.32   -11.861833    3               +0.0000
iter:  11  13:50:25  -2.62  -2.36   -11.862274    2               +0.0000
iter:  12  13:50:32  -3.00  -2.54   -11.862118    3               +0.0000
iter:  13  13:50:40  -2.64  -3.11   -11.860938    2               +0.0000
iter:  14  13:50:49  -3.80  -3.27   -11.860893    2               +0.0000
iter:  15  13:50:56  -4.46  -3.33   -11.860854    2               +0.0000
iter:  16  13:51:01  -4.62  -3.40   -11.860785    2               +0.0000
iter:  17  13:51:06  -5.12  -3.47   -11.860652    2               +0.0000
iter:  18  13:51:13  -4.40  -3.70   -11.860637    2               +0.0001
iter:  19  13:51:19  -5.76  -3.92   -11.860629    2               +0.0001
iter:  20  13:51:25  -5.79  -3.95   -11.860640    2               +0.0001
iter:  21  13:51:31  -5.19  -4.14   -11.860663    2               +0.0001
iter:  22  13:51:36  -6.81  -4.28   -11.860665    2               +0.0001
iter:  23  13:51:41  -6.21  -4.37   -11.860668    2               +0.0002
iter:  24  13:51:47  -7.63  -4.56   -11.860665    2               +0.0002

Converged after 24 iterations.

Dipole moment: (0.000000, -0.000000, -0.000000) |e|*Ang

Total magnetic moment: (0.000000, 0.000000, 0.000108)
Local magnetic moments:
   0 Cu ( 0.000000,  0.000000,  0.000003)
   1 Fe ( 0.000000,  0.000000,  0.000082)

Energy contributions relative to reference atoms: (reference = -79640.906441)

Kinetic:        -15.233375
Potential:      +11.929003
External:        +0.000000
XC:              -8.668074
Entropy (-ST):   -0.133809
Local:           +0.178685
--------------------------
Free energy:    -11.927570
Extrapolated:   -11.860665

Spin contamination: 0.000003 electrons
Fermi level: 8.65266

Warning: Showing only first 2 kpts
                      Up                     Down
 Kpt  Band  Eigenvalues  Occupancy  Eigenvalues  Occupancy
  0     7      8.37417    0.00872      8.37422    0.00872
  0     8      8.85405    0.00109      8.85417    0.00109
  0     9      8.87384    0.00091      8.87389    0.00091
  0    10      9.53089    0.00000      9.53098    0.00000

  1     7      7.36848    0.01852      7.36851    0.01852
  1     8      8.21749    0.01828      8.21758    0.01828
  1     9      8.95799    0.00083      8.95807    0.00083
  1    10      9.52214    0.00000      9.52223    0.00000



Forces in eV/Ang:
  0 Cu    0.00000    0.00000    0.00000
  1 Fe    0.00000    0.00000    0.00000

Stress tensor:
     0.071249     0.022569     0.022569
     0.022569     0.066366    -0.019002
     0.022569    -0.019002     0.066366
Writing to 1fe1cu_relaxed.gpw (mode='')

System changes: positions, cell 

Initialize ...

Cu-setup:
  name: Copper
  id: f1c4d45d90492f1bbfdcb091e8418fdf
  Z: 29
  valence: 11
  core: 18
  charge: 0.0
  file: /usr/share/gpaw-setups/Cu.PBE.gz
  cutoffs: 1.06(comp), 2.06(filt), 2.43(core), lmax=2
  valence states:
                energy  radius
    4s(1.00)    -4.609   1.164
    4p(0.00)    -0.698   1.164
    3d(10.00)    -5.039   1.058
    *s          22.603   1.164
    *p          26.513   1.164
    *d          22.172   1.058

  Using partial waves for Cu as LCAO basis

Fe-setup:
  name: Iron
  id: 37abbd8d6c3c35915a9b583b742da910
  Z: 26
  valence: 8
  core: 18
  charge: 0.0
  file: /usr/share/gpaw-setups/Fe.PBE.gz
  cutoffs: 1.06(comp), 2.06(filt), 2.67(core), lmax=2
  valence states:
                energy  radius
    4s(2.00)    -5.291   1.164
    4p(0.00)    -1.326   1.058
    3d(6.00)    -7.505   1.058
    *s          21.920   1.164
    *p          25.885   1.058
    *d          19.706   1.058

  Using partial waves for Fe as LCAO basis

Reference energy: -79640.906441

Spin-polarized calculation.
Magnetic moment: 0.000000

Occupation numbers:
  Fermi-Dirac: width=0.1000 eV

Convergence criteria:
  Maximum total energy change: 0.0005 eV / electron
  Maximum integral of absolute density change: 0.0001 electrons
  Maximum integral of absolute eigenstate change: 4e-08 eV^2
  Maximum number of iterations: 333

Symmetries present (total): 2

  ( 1  0  0)  ( 1  0  0)
  ( 0  1  0)  ( 0  0  1)
  ( 0  0  1)  ( 0  1  0)

216 k-points: 6 x 6 x 6 Monkhorst-Pack grid
63 k-points in the irreducible part of the Brillouin zone
       k-points in crystal coordinates                weights
   0:     0.08333333   -0.41666667   -0.41666667          2/216
   1:     0.08333333   -0.25000000   -0.41666667          4/216
   2:     0.08333333   -0.25000000   -0.25000000          2/216
   3:     0.08333333   -0.08333333   -0.41666667          4/216
   4:     0.08333333   -0.08333333   -0.25000000          4/216
   5:     0.08333333   -0.08333333   -0.08333333          2/216
   6:     0.08333333    0.08333333   -0.41666667          4/216
   7:     0.08333333    0.08333333   -0.25000000          4/216
   8:     0.08333333    0.08333333   -0.08333333          4/216
   9:     0.08333333    0.08333333    0.08333333          2/216
          ...
  62:     0.41666667    0.41666667    0.41666667          2/216

Wave functions: Plane wave expansion
  Cutoff energy: 500.000 eV
  Number of coefficients (min, max): 602, 623
  Pulay-stress correction: 0.000000 eV/Ang^3 (de/decut=0.000000)
  Using FFTW library
  ScaLapack parameters: grid=1x1, blocksize=None 

Eigensolver
   Davidson(niter=1, smin=None, normalize=True) 

Densities:
  Coarse grid: 24*12*12 grid
  Fine grid: 48*24*24 grid
  Total Charge: 0.000000 

Density mixing:
  Method: sum
  Backend: pulay
  Linear mixing parameter: 0.05
  Mixing with 5 old densities
  Damping of long wave oscillations: 50 

Hamiltonian:
  XC and Coulomb potentials evaluated on a 48*24*24 grid
  Using the PBE Exchange-Correlation functional
 

Memory estimate:
  Process memory now: 154.02 MiB
  Calculator: 36.15 MiB
    Density: 1.78 MiB
      Arrays: 0.92 MiB
      Localized functions: 0.59 MiB
      Mixer: 0.26 MiB
    Hamiltonian: 0.70 MiB
      Arrays: 0.69 MiB
      XC: 0.00 MiB
      Poisson: 0.00 MiB
      vbar: 0.01 MiB
    Wavefunctions: 33.67 MiB
      Arrays psit_nG: 25.15 MiB
      Eigensolver: 0.32 MiB
      Projections: 1.45 MiB
      Projectors: 6.18 MiB
      PW-descriptor: 0.57 MiB

Total number of cores used: 1

Number of atoms: 2
Number of atomic orbitals: 18
Number of bands in calculation: 21
Bands to converge: occupied states only
Number of valence electrons: 19

... initialized

Initializing position-dependent things.

Density initialized from atomic densities
Creating initial wave functions:
  18 bands from LCAO basis set
  3 bands from random numbers

                  
                  
                  
                  
         Cu       
                  
                  
       Fe         
                  
                  
                  
                  

Positions:
   0 Cu     0.000000    1.839281    1.839281    ( 0.0000,  0.0000,  0.0000)
   1 Fe     0.000000    0.000000    0.000000    ( 0.0000,  0.0000,  0.0000)

Unit cell:
           periodic     x           y           z      points  spacing
  1. axis:    yes    0.000000    3.638100    3.638100    24     0.1750
  2. axis:    yes    1.819050    0.000000    1.819050    12     0.1750
  3. axis:    yes    1.819050    1.819050    0.000000    12     0.1750

  Lengths:   5.145050   2.572525   2.572525
  Angles:   60.000000  60.000000  60.000000

Effective grid spacing dv^(1/3) = 0.1910

                     log10-error:    total        iterations:
           time      wfs    density  energy       fermi  poisson  magmom
iter:   1  13:52:05  +3.84   +inf   -19.958648    33              +0.0003
iter:   2  13:52:10  +0.07   +inf   -20.061230    2               +0.0000
iter:   3  13:52:15  -0.99   +inf   -20.073669    2               +0.0000
iter:   4  13:52:20  +0.62  -0.96   -12.741011    3               +0.0000
iter:   5  13:52:26  -0.79  -1.29   -12.235158    33              +0.0000
iter:   6  13:52:32  -0.21  -1.40   -12.044451    34              +0.0000
iter:   7  13:52:38  -2.07  -1.74   -11.994055    2               +0.0000
iter:   8  13:52:43  -2.23  -1.80   -11.909503    3               +0.0000
iter:   9  13:52:48  -1.93  -1.90   -11.833644    3               +0.0000
iter:  10  13:52:54  -2.38  -2.32   -11.834279    3               -0.0000
iter:  11  13:53:00  -2.82  -2.37   -11.834681    2               -0.0000
iter:  12  13:53:05  -3.03  -2.51   -11.834456    3               -0.0000
iter:  13  13:53:10  -2.86  -3.13   -11.833529    2               -0.0000
iter:  14  13:53:16  -4.16  -3.24   -11.833528    2               -0.0000
iter:  15  13:53:22  -4.37  -3.35   -11.833400    2               -0.0000
iter:  16  13:53:28  -4.73  -3.50   -11.833306    2               -0.0000
iter:  17  13:53:33  -5.06  -3.63   -11.833287    2               -0.0000
iter:  18  13:53:39  -5.50  -3.88   -11.833310    2               -0.0000
iter:  19  13:53:44  -5.83  -3.95   -11.833314    2               -0.0000
iter:  20  13:53:49  -5.84  -4.00   -11.833320    2               -0.0001
iter:  21  13:53:55  -5.99  -4.05   -11.833334    2               -0.0001
iter:  22  13:54:00  -6.98  -4.11   -11.833335    2               -0.0001
iter:  23  13:54:06  -6.36  -4.15   -11.833323    2               -0.0001
iter:  24  13:54:11  -6.79  -4.37   -11.833323    2               -0.0001
iter:  25  13:54:18  -7.03  -4.52   -11.833331    2               -0.0002
iter:  26  13:54:24  -7.23  -4.67   -11.833333    1               -0.0002
iter:  27  13:54:30  -7.53  -4.88   -11.833334    2               -0.0003

Converged after 27 iterations.

Dipole moment: (0.000721, 0.002307, 0.002307) |e|*Ang

Total magnetic moment: (0.000000, 0.000000, -0.000155)
Local magnetic moments:
   0 Cu ( 0.000000,  0.000000, -0.000005)
   1 Fe ( 0.000000,  0.000000, -0.000119)

Energy contributions relative to reference atoms: (reference = -79640.906441)

Kinetic:        -16.217440
Potential:      +12.701228
External:        +0.000000
XC:              -8.427316
Entropy (-ST):   -0.136275
Local:           +0.178333
--------------------------
Free energy:    -11.901471
Extrapolated:   -11.833334

Spin contamination: 0.000004 electrons
Fermi level: 8.45498

Warning: Showing only first 2 kpts
                      Up                     Down
 Kpt  Band  Eigenvalues  Occupancy  Eigenvalues  Occupancy
  0     7      8.18454    0.00868      8.18447    0.00868
  0     8      8.65118    0.00114      8.65101    0.00114
  0     9      8.67037    0.00096      8.67029    0.00096
  0    10      9.31395    0.00000      9.31383    0.00000

  1     7      7.18830    0.01852      7.18825    0.01852
  1     8      8.03125    0.01825      8.03110    0.01826
  1     9      8.75077    0.00091      8.75066    0.00092
  1    10      9.31074    0.00000      9.31062    0.00000



Forces in eV/Ang:
  0 Cu    0.07821   -0.11822   -0.11822
  1 Fe   -0.07806    0.11805    0.11805

Stress tensor:
     0.084568     0.022058     0.022058
     0.022058     0.079605    -0.018865
     0.022058    -0.018865     0.079605
System changes: positions, cell 

Initialize ...

Cu-setup:
  name: Copper
  id: f1c4d45d90492f1bbfdcb091e8418fdf
  Z: 29
  valence: 11
  core: 18
  charge: 0.0
  file: /usr/share/gpaw-setups/Cu.PBE.gz
  cutoffs: 1.06(comp), 2.06(filt), 2.43(core), lmax=2
  valence states:
                energy  radius
    4s(1.00)    -4.609   1.164
    4p(0.00)    -0.698   1.164
    3d(10.00)    -5.039   1.058
    *s          22.603   1.164
    *p          26.513   1.164
    *d          22.172   1.058

  Using partial waves for Cu as LCAO basis

Fe-setup:
  name: Iron
  id: 37abbd8d6c3c35915a9b583b742da910
  Z: 26
  valence: 8
  core: 18
  charge: 0.0
  file: /usr/share/gpaw-setups/Fe.PBE.gz
  cutoffs: 1.06(comp), 2.06(filt), 2.67(core), lmax=2
  valence states:
                energy  radius
    4s(2.00)    -5.291   1.164
    4p(0.00)    -1.326   1.058
    3d(6.00)    -7.505   1.058
    *s          21.920   1.164
    *p          25.885   1.058
    *d          19.706   1.058

  Using partial waves for Fe as LCAO basis

Reference energy: -79640.906441

Spin-polarized calculation.
Magnetic moment: 0.000000

Occupation numbers:
  Fermi-Dirac: width=0.1000 eV

Convergence criteria:
  Maximum total energy change: 0.0005 eV / electron
  Maximum integral of absolute density change: 0.0001 electrons
  Maximum integral of absolute eigenstate change: 4e-08 eV^2
  Maximum number of iterations: 333

Symmetries present (total): 4

  ( 1  0  0)  ( 1  0  0)  (-1  0  0)  (-1  0  0)
  ( 0  1  0)  ( 0  0  1)  ( 0  0 -1)  ( 0 -1  0)
  ( 0  0  1)  ( 0  1  0)  ( 0 -1  0)  ( 0  0 -1)

216 k-points: 6 x 6 x 6 Monkhorst-Pack grid
63 k-points in the irreducible part of the Brillouin zone
       k-points in crystal coordinates                weights
   0:     0.08333333   -0.41666667   -0.41666667          2/216
   1:     0.08333333   -0.25000000   -0.41666667          4/216
   2:     0.08333333   -0.25000000   -0.25000000          2/216
   3:     0.08333333   -0.08333333   -0.41666667          4/216
   4:     0.08333333   -0.08333333   -0.25000000          4/216
   5:     0.08333333   -0.08333333   -0.08333333          2/216
   6:     0.08333333    0.08333333   -0.41666667          4/216
   7:     0.08333333    0.08333333   -0.25000000          4/216
   8:     0.08333333    0.08333333   -0.08333333          4/216
   9:     0.08333333    0.08333333    0.08333333          2/216
          ...
  62:     0.41666667    0.41666667    0.41666667          2/216

Wave functions: Plane wave expansion
  Cutoff energy: 500.000 eV
  Number of coefficients (min, max): 594, 610
  Pulay-stress correction: 0.000000 eV/Ang^3 (de/decut=0.000000)
  Using FFTW library
  ScaLapack parameters: grid=1x1, blocksize=None 

Eigensolver
   Davidson(niter=1, smin=None, normalize=True) 

Densities:
  Coarse grid: 24*12*12 grid
  Fine grid: 48*24*24 grid
  Total Charge: 0.000000 

Density mixing:
  Method: sum
  Backend: pulay
  Linear mixing parameter: 0.05
  Mixing with 5 old densities
  Damping of long wave oscillations: 50 

Hamiltonian:
  XC and Coulomb potentials evaluated on a 48*24*24 grid
  Using the PBE Exchange-Correlation functional
 

Memory estimate:
  Process memory now: 159.61 MiB
  Calculator: 35.52 MiB
    Density: 1.78 MiB
      Arrays: 0.92 MiB
      Localized functions: 0.59 MiB
      Mixer: 0.26 MiB
    Hamiltonian: 0.70 MiB
      Arrays: 0.69 MiB
      XC: 0.00 MiB
      Poisson: 0.00 MiB
      vbar: 0.01 MiB
    Wavefunctions: 33.04 MiB
      Arrays psit_nG: 24.63 MiB
      Eigensolver: 0.31 MiB
      Projections: 1.45 MiB
      Projectors: 6.08 MiB
      PW-descriptor: 0.57 MiB

Total number of cores used: 1

Number of atoms: 2
Number of atomic orbitals: 18
Number of bands in calculation: 21
Bands to converge: occupied states only
Number of valence electrons: 19

... initialized

Initializing position-dependent things.

Density initialized from atomic densities
Creating initial wave functions:
  18 bands from LCAO basis set
  3 bands from random numbers

                  
                  
                  
                  
         Cu       
                  
                  
       Fe         
                  
                  
                  
                  

Positions:
   0 Cu     0.000000    1.810000    1.810000    ( 0.0000,  0.0000,  0.0000)
   1 Fe     0.000000    0.000000    0.000000    ( 0.0000,  0.0000,  0.0000)

Unit cell:
           periodic     x           y           z      points  spacing
  1. axis:    yes    0.000000    3.620000    3.620000    24     0.1742
  2. axis:    yes    1.810000    0.000000    1.810000    12     0.1742
  3. axis:    yes    1.810000    1.810000    0.000000    12     0.1742

  Lengths:   5.119453   2.559727   2.559727
  Angles:   60.000000  60.000000  60.000000

Effective grid spacing dv^(1/3) = 0.1900

                     log10-error:    total        iterations:
           time      wfs    density  energy       fermi  poisson  magmom
iter:   1  13:54:48  +3.84   +inf   -19.989069    35              -0.0002
iter:   2  13:54:53  +0.08   +inf   -20.093669    2               -0.0000
iter:   3  13:54:57  -0.98   +inf   -20.106285    2               -0.0000
iter:   4  13:55:03  +0.61  -0.97   -12.750521    4               -0.0000
iter:   5  13:55:07  -0.81  -1.29   -12.265522    28              -0.0000
iter:   6  13:55:13  -0.20  -1.40   -12.066630    35              -0.0000
iter:   7  13:55:18  -2.06  -1.75   -12.012982    2               -0.0000
iter:   8  13:55:24  -2.35  -1.81   -11.937238    3               -0.0000
iter:   9  13:55:29  -1.86  -1.89   -11.861471    3               +0.0000
iter:  10  13:55:34  -2.22  -2.32   -11.861833    3               +0.0000
iter:  11  13:55:39  -2.62  -2.36   -11.862274    2               +0.0000
iter:  12  13:55:45  -3.00  -2.54   -11.862118    3               +0.0000
iter:  13  13:55:49  -2.64  -3.11   -11.860938    2               +0.0000
iter:  14  13:55:55  -3.80  -3.27   -11.860893    2               +0.0000
iter:  15  13:56:00  -4.46  -3.33   -11.860854    2               +0.0000
iter:  16  13:56:06  -4.62  -3.40   -11.860785    2               +0.0000
iter:  17  13:56:10  -5.12  -3.47   -11.860652    2               +0.0000
iter:  18  13:56:15  -4.40  -3.70   -11.860637    2               +0.0001
iter:  19  13:56:21  -5.76  -3.92   -11.860629    2               +0.0001
iter:  20  13:56:27  -5.79  -3.95   -11.860640    2               +0.0001
iter:  21  13:56:34  -5.19  -4.14   -11.860663    2               +0.0001
iter:  22  13:56:40  -6.81  -4.28   -11.860665    2               +0.0001
iter:  23  13:56:45  -6.21  -4.37   -11.860668    2               +0.0002
iter:  24  13:56:51  -7.63  -4.56   -11.860665    2               +0.0002

Converged after 24 iterations.

Dipole moment: (0.000000, -0.000000, -0.000000) |e|*Ang

Total magnetic moment: (0.000000, 0.000000, 0.000108)
Local magnetic moments:
   0 Cu ( 0.000000,  0.000000,  0.000003)
   1 Fe ( 0.000000,  0.000000,  0.000082)

Energy contributions relative to reference atoms: (reference = -79640.906441)

Kinetic:        -15.233375
Potential:      +11.929003
External:        +0.000000
XC:              -8.668074
Entropy (-ST):   -0.133809
Local:           +0.178685
--------------------------
Free energy:    -11.927570
Extrapolated:   -11.860665

Spin contamination: 0.000003 electrons
Fermi level: 8.65266

Warning: Showing only first 2 kpts
                      Up                     Down
 Kpt  Band  Eigenvalues  Occupancy  Eigenvalues  Occupancy
  0     7      8.37417    0.00872      8.37422    0.00872
  0     8      8.85405    0.00109      8.85417    0.00109
  0     9      8.87384    0.00091      8.87389    0.00091
  0    10      9.53089    0.00000      9.53098    0.00000

  1     7      7.36848    0.01852      7.36851    0.01852
  1     8      8.21749    0.01828      8.21758    0.01828
  1     9      8.95799    0.00083      8.95807    0.00083
  1    10      9.52214    0.00000      9.52223    0.00000


System changes: positions, cell 

Initialize ...

Cu-setup:
  name: Copper
  id: f1c4d45d90492f1bbfdcb091e8418fdf
  Z: 29
  valence: 11
  core: 18
  charge: 0.0
  file: /usr/share/gpaw-setups/Cu.PBE.gz
  cutoffs: 1.06(comp), 2.06(filt), 2.43(core), lmax=2
  valence states:
                energy  radius
    4s(1.00)    -4.609   1.164
    4p(0.00)    -0.698   1.164
    3d(10.00)    -5.039   1.058
    *s          22.603   1.164
    *p          26.513   1.164
    *d          22.172   1.058

  Using partial waves for Cu as LCAO basis

Fe-setup:
  name: Iron
  id: 37abbd8d6c3c35915a9b583b742da910
  Z: 26
  valence: 8
  core: 18
  charge: 0.0
  file: /usr/share/gpaw-setups/Fe.PBE.gz
  cutoffs: 1.06(comp), 2.06(filt), 2.67(core), lmax=2
  valence states:
                energy  radius
    4s(2.00)    -5.291   1.164
    4p(0.00)    -1.326   1.058
    3d(6.00)    -7.505   1.058
    *s          21.920   1.164
    *p          25.885   1.058
    *d          19.706   1.058

  Using partial waves for Fe as LCAO basis

Reference energy: -79640.906441

Spin-polarized calculation.
Magnetic moment: 0.000000

Occupation numbers:
  Fermi-Dirac: width=0.1000 eV

Convergence criteria:
  Maximum total energy change: 0.0005 eV / electron
  Maximum integral of absolute density change: 0.0001 electrons
  Maximum integral of absolute eigenstate change: 4e-08 eV^2
  Maximum number of iterations: 333

Symmetries present (total): 4

  ( 1  0  0)  ( 1  0  0)  (-1  0  0)  (-1  0  0)
  ( 0  1  0)  ( 0  0  1)  ( 0  0 -1)  ( 0 -1  0)
  ( 0  0  1)  ( 0  1  0)  ( 0 -1  0)  ( 0  0 -1)

216 k-points: 6 x 6 x 6 Monkhorst-Pack grid
63 k-points in the irreducible part of the Brillouin zone
       k-points in crystal coordinates                weights
   0:     0.08333333   -0.41666667   -0.41666667          2/216
   1:     0.08333333   -0.25000000   -0.41666667          4/216
   2:     0.08333333   -0.25000000   -0.25000000          2/216
   3:     0.08333333   -0.08333333   -0.41666667          4/216
   4:     0.08333333   -0.08333333   -0.25000000          4/216
   5:     0.08333333   -0.08333333   -0.08333333          2/216
   6:     0.08333333    0.08333333   -0.41666667          4/216
   7:     0.08333333    0.08333333   -0.25000000          4/216
   8:     0.08333333    0.08333333   -0.08333333          4/216
   9:     0.08333333    0.08333333    0.08333333          2/216
          ...
  62:     0.41666667    0.41666667    0.41666667          2/216

Wave functions: Plane wave expansion
  Cutoff energy: 500.000 eV
  Number of coefficients (min, max): 550, 574
  Pulay-stress correction: 0.000000 eV/Ang^3 (de/decut=0.000000)
  Using FFTW library
  ScaLapack parameters: grid=1x1, blocksize=None 

Eigensolver
   Davidson(niter=1, smin=None, normalize=True) 

Densities:
  Coarse grid: 21*10*10 grid
  Fine grid: 42*20*20 grid
  Total Charge: 0.000000 

Density mixing:
  Method: sum
  Backend: pulay
  Linear mixing parameter: 0.05
  Mixing with 5 old densities
  Damping of long wave oscillations: 50 

Hamiltonian:
  XC and Coulomb potentials evaluated on a 42*20*20 grid
  Using the PBE Exchange-Correlation functional
 

Memory estimate:
  Process memory now: 160.53 MiB
  Calculator: 32.57 MiB
    Density: 1.08 MiB
      Arrays: 0.56 MiB
      Localized functions: 0.36 MiB
      Mixer: 0.16 MiB
    Hamiltonian: 0.43 MiB
      Arrays: 0.42 MiB
      XC: 0.00 MiB
      Poisson: 0.00 MiB
      vbar: 0.01 MiB
    Wavefunctions: 31.06 MiB
      Arrays psit_nG: 23.18 MiB
      Eigensolver: 0.30 MiB
      Projections: 1.45 MiB
      Projectors: 5.66 MiB
      PW-descriptor: 0.48 MiB

Total number of cores used: 1

Number of atoms: 2
Number of atomic orbitals: 18
Number of bands in calculation: 21
Bands to converge: occupied states only
Number of valence electrons: 19

... initialized

Initializing position-dependent things.

Density initialized from atomic densities
Creating initial wave functions:
  18 bands from LCAO basis set
  3 bands from random numbers

                  
                  
                  
                  
         Cu       
                  
                  
       Fe         
                  
                  
                  
                  

Positions:
   0 Cu    -0.029013    1.779556    1.779556    ( 0.0000,  0.0000,  0.0000)
   1 Fe     0.000000    0.000000    0.000000    ( 0.0000,  0.0000,  0.0000)

Unit cell:
           periodic     x           y           z      points  spacing
  1. axis:    yes   -0.058025    3.559113    3.559113    21     0.1973
  2. axis:    yes    1.749698   -0.002293    1.752836    10     0.2030
  3. axis:    yes    1.749698    1.752836   -0.002293    10     0.2030

  Lengths:   5.033680   2.476668   2.476668
  Angles:   60.145897  60.553145  60.553145

Effective grid spacing dv^(1/3) = 0.2189

                     log10-error:    total        iterations:
           time      wfs    density  energy       fermi  poisson  magmom
iter:   1  13:57:04  +3.85   +inf   -20.163994    35              -0.0001
iter:   2  13:57:09  +0.07   +inf   -20.270894    2               -0.0000
iter:   3  13:57:14  -0.96   +inf   -20.283924    2               +0.0000
iter:   4  13:57:20  +0.57  -0.98   -12.759725    4               +0.0000
iter:   5  13:57:25  -0.87  -1.30   -12.341917    32              -0.0000
iter:   6  13:57:31  -0.16  -1.40   -12.108568    29              -0.0000
iter:   7  13:57:37  -1.91  -1.77   -12.032316    2               -0.0000
iter:   8  13:57:43  -2.38  -1.86   -11.965276    3               -0.0000
iter:   9  13:57:48  -1.84  -1.92   -11.925987    3               -0.0000
iter:  10  13:57:54  -1.84  -2.24   -11.913127    2               -0.0000
iter:  11  13:57:59  -1.75  -2.33   -11.927087    3               -0.0001
iter:  12  13:58:04  -2.22  -2.55   -11.914640    2               -0.0001
iter:  13  13:58:09  -2.60  -2.97   -11.911617    3               -0.0001
iter:  14  13:58:15  -4.07  -3.20   -11.911587    2               -0.0001
iter:  15  13:58:19  -4.13  -3.21   -11.911513    2               -0.0001
iter:  16  13:58:25  -3.99  -3.30   -11.911423    2               -0.0001
iter:  17  13:58:31  -5.27  -3.34   -11.911329    2               -0.0002
iter:  18  13:58:37  -4.52  -3.39   -11.911140    2               -0.0002
iter:  19  13:58:42  -4.51  -3.74   -11.911120    2               -0.0003
iter:  20  13:58:47  -5.61  -3.84   -11.911140    2               -0.0003
iter:  21  13:58:51  -6.44  -3.92   -11.911158    2               -0.0004
iter:  22  13:58:56  -6.84  -4.01   -11.911166    2               -0.0005
iter:  23  13:59:01  -7.58  -4.04   -11.911165    2               -0.0005

Converged after 23 iterations.

Dipole moment: (-0.000000, -0.000000, 0.000000) |e|*Ang

Total magnetic moment: (0.000000, 0.000000, -0.000303)
Local magnetic moments:
   0 Cu ( 0.000000,  0.000000, -0.000009)
   1 Fe ( 0.000000,  0.000000, -0.000229)

Energy contributions relative to reference atoms: (reference = -79640.906441)

Kinetic:         -9.027558
Potential:       +7.013272
External:        +0.000000
XC:             -10.015069
Entropy (-ST):   -0.122995
Local:           +0.179688
--------------------------
Free energy:    -11.972663
Extrapolated:   -11.911165

Spin contamination: 0.000009 electrons
Fermi level: 9.67612

Warning: Showing only first 2 kpts
                      Up                     Down
 Kpt  Band  Eigenvalues  Occupancy  Eigenvalues  Occupancy
  0     7      9.36810    0.00885      9.36796    0.00885
  0     8      9.87891    0.00108      9.87858    0.00108
  0     9      9.90266    0.00087      9.90251    0.00087
  0    10     10.70031    0.00000     10.70007    0.00000

  1     7      8.32016    0.01852      8.32009    0.01852
  1     8      9.17908    0.01839      9.17880    0.01839
  1     9      9.99316    0.00075      9.99296    0.00075
  1    10     10.56529    0.00000     10.56507    0.00000



Forces in eV/Ang:
  0 Cu    0.00000   -0.00000    0.00000
  1 Fe    0.00000    0.00000    0.00000

Stress tensor:
    -0.011913     0.011130     0.011130
     0.011130    -0.016649    -0.009033
     0.011130    -0.009033    -0.016649
Writing to 1fe1cu_relaxed.gpw (mode='')

System changes: positions, cell 

Initialize ...

Cu-setup:
  name: Copper
  id: f1c4d45d90492f1bbfdcb091e8418fdf
  Z: 29
  valence: 11
  core: 18
  charge: 0.0
  file: /usr/share/gpaw-setups/Cu.PBE.gz
  cutoffs: 1.06(comp), 2.06(filt), 2.43(core), lmax=2
  valence states:
                energy  radius
    4s(1.00)    -4.609   1.164
    4p(0.00)    -0.698   1.164
    3d(10.00)    -5.039   1.058
    *s          22.603   1.164
    *p          26.513   1.164
    *d          22.172   1.058

  Using partial waves for Cu as LCAO basis

Fe-setup:
  name: Iron
  id: 37abbd8d6c3c35915a9b583b742da910
  Z: 26
  valence: 8
  core: 18
  charge: 0.0
  file: /usr/share/gpaw-setups/Fe.PBE.gz
  cutoffs: 1.06(comp), 2.06(filt), 2.67(core), lmax=2
  valence states:
                energy  radius
    4s(2.00)    -5.291   1.164
    4p(0.00)    -1.326   1.058
    3d(6.00)    -7.505   1.058
    *s          21.920   1.164
    *p          25.885   1.058
    *d          19.706   1.058

  Using partial waves for Fe as LCAO basis

Reference energy: -79640.906441

Spin-polarized calculation.
Magnetic moment: 0.000000

Occupation numbers:
  Fermi-Dirac: width=0.1000 eV

Convergence criteria:
  Maximum total energy change: 0.0005 eV / electron
  Maximum integral of absolute density change: 0.0001 electrons
  Maximum integral of absolute eigenstate change: 4e-08 eV^2
  Maximum number of iterations: 333

Symmetries present (total): 4

  ( 1  0  0)  ( 1  0  0)  (-1  0  0)  (-1  0  0)
  ( 0  1  0)  ( 0  0  1)  ( 0  0 -1)  ( 0 -1  0)
  ( 0  0  1)  ( 0  1  0)  ( 0 -1  0)  ( 0  0 -1)

216 k-points: 6 x 6 x 6 Monkhorst-Pack grid
63 k-points in the irreducible part of the Brillouin zone
       k-points in crystal coordinates                weights
   0:     0.08333333   -0.41666667   -0.41666667          2/216
   1:     0.08333333   -0.25000000   -0.41666667          4/216
   2:     0.08333333   -0.25000000   -0.25000000          2/216
   3:     0.08333333   -0.08333333   -0.41666667          4/216
   4:     0.08333333   -0.08333333   -0.25000000          4/216
   5:     0.08333333   -0.08333333   -0.08333333          2/216
   6:     0.08333333    0.08333333   -0.41666667          4/216
   7:     0.08333333    0.08333333   -0.25000000          4/216
   8:     0.08333333    0.08333333   -0.08333333          4/216
   9:     0.08333333    0.08333333    0.08333333          2/216
          ...
  62:     0.41666667    0.41666667    0.41666667          2/216

Wave functions: Plane wave expansion
  Cutoff energy: 500.000 eV
  Number of coefficients (min, max): 554, 580
  Pulay-stress correction: 0.000000 eV/Ang^3 (de/decut=0.000000)
  Using FFTW library
  ScaLapack parameters: grid=1x1, blocksize=None 

Eigensolver
   Davidson(niter=1, smin=None, normalize=True) 

Densities:
  Coarse grid: 24*10*10 grid
  Fine grid: 48*20*20 grid
  Total Charge: 0.000000 

Density mixing:
  Method: sum
  Backend: pulay
  Linear mixing parameter: 0.05
  Mixing with 5 old densities
  Damping of long wave oscillations: 50 

Hamiltonian:
  XC and Coulomb potentials evaluated on a 48*20*20 grid
  Using the PBE Exchange-Correlation functional
 

Memory estimate:
  Process memory now: 160.53 MiB
  Calculator: 33.04 MiB
    Density: 1.18 MiB
      Arrays: 0.64 MiB
      Localized functions: 0.36 MiB
      Mixer: 0.18 MiB
    Hamiltonian: 0.48 MiB
      Arrays: 0.48 MiB
      XC: 0.00 MiB
      Poisson: 0.00 MiB
      vbar: 0.01 MiB
    Wavefunctions: 31.38 MiB
      Arrays psit_nG: 23.42 MiB
      Eigensolver: 0.30 MiB
      Projections: 1.45 MiB
      Projectors: 5.71 MiB
      PW-descriptor: 0.50 MiB

Total number of cores used: 1

Number of atoms: 2
Number of atomic orbitals: 18
Number of bands in calculation: 21
Bands to converge: occupied states only
Number of valence electrons: 19

... initialized

Initializing position-dependent things.

Density initialized from atomic densities
Creating initial wave functions:
  18 bands from LCAO basis set
  3 bands from random numbers

                  
                  
                  
                  
         Cu       
                  
                  
       Fe         
                  
                  
                  
                  

Positions:
   0 Cu    -0.042727    1.792100    1.792100    ( 0.0000,  0.0000,  0.0000)
   1 Fe     0.000000   -0.000000   -0.000000    ( 0.0000,  0.0000,  0.0000)

Unit cell:
           periodic     x           y           z      points  spacing
  1. axis:    yes   -0.085454    3.584200    3.584200    24     0.1744
  2. axis:    yes    1.747025   -0.003589    1.752980    10     0.2033
  3. axis:    yes    1.747025    1.752980   -0.003589    10     0.2033

  Lengths:   5.069544   2.474884   2.474884
  Angles:   60.248209  60.800361  60.800361

Effective grid spacing dv^(1/3) = 0.2101

                     log10-error:    total        iterations:
           time      wfs    density  energy       fermi  poisson  magmom
iter:   1  13:59:19  +3.85   +inf   -20.221546    35              -0.0001
iter:   2  13:59:24  +0.08   +inf   -20.328861    2               -0.0000
iter:   3  13:59:29  -0.95   +inf   -20.342029    2               -0.0000
iter:   4  13:59:34  +0.58  -0.97   -12.800303    4               +0.0000
iter:   5  13:59:39  -0.85  -1.29   -12.352035    33              +0.0000
iter:   6  13:59:44  -0.16  -1.39   -12.130807    34              +0.0000
iter:   7  13:59:49  -1.94  -1.76   -12.054152    2               +0.0000
iter:   8  13:59:54  -2.52  -1.84   -11.995827    3               +0.0000
iter:   9  13:59:59  -1.82  -1.90   -11.927789    3               +0.0000
iter:  10  14:00:04  -1.95  -2.26   -11.921587    2               +0.0000
iter:  11  14:00:09  -1.93  -2.32   -11.928668    3               +0.0000
iter:  12  14:00:13  -2.54  -2.60   -11.922982    2               +0.0000
iter:  13  14:00:19  -2.53  -2.97   -11.920193    3               +0.0001
iter:  14  14:00:27  -4.08  -3.21   -11.920225    2               +0.0001
iter:  15  14:00:36  -4.37  -3.22   -11.920185    2               +0.0001
iter:  16  14:00:45  -4.27  -3.28   -11.920074    2               +0.0001
iter:  17  14:00:51  -4.94  -3.33   -11.919992    2               +0.0001
iter:  18  14:01:02  -4.41  -3.37   -11.919749    2               +0.0002
iter:  19  14:01:10  -4.88  -3.75   -11.919742    2               +0.0002
iter:  20  14:01:18  -5.26  -3.90   -11.919766    2               +0.0002
iter:  21  14:01:25  -6.35  -3.95   -11.919780    2               +0.0003
iter:  22  14:01:30  -6.07  -3.98   -11.919779    2               +0.0003
iter:  23  14:01:35  -5.95  -4.02   -11.919799    2               +0.0004
iter:  24  14:01:40  -6.65  -4.27   -11.919798    2               +0.0005
iter:  25  14:01:46  -6.47  -4.35   -11.919789    2               +0.0006
iter:  26  14:01:52  -6.67  -4.45   -11.919790    2               +0.0008
iter:  27  14:01:58  -7.27  -4.52   -11.919787    2               +0.0009
iter:  28  14:02:03  -7.34  -4.59   -11.919785    2               +0.0012
iter:  29  14:02:09  -7.48  -4.81   -11.919787    2               +0.0015

Converged after 29 iterations.

Dipole moment: (-0.000000, -0.000000, 0.000000) |e|*Ang

Total magnetic moment: (0.000000, 0.000000, 0.000815)
Local magnetic moments:
   0 Cu ( 0.000000,  0.000000,  0.000026)
   1 Fe ( 0.000000,  0.000000,  0.000668)

Energy contributions relative to reference atoms: (reference = -79640.906441)

Kinetic:        -10.032188
Potential:       +7.809500
External:        +0.000000
XC:              -9.834917
Entropy (-ST):   -0.124865
Local:           +0.200250
--------------------------
Free energy:    -11.982220
Extrapolated:   -11.919787

Spin contamination: 0.000021 electrons
Fermi level: 9.53511

Warning: Showing only first 2 kpts
                      Up                     Down
 Kpt  Band  Eigenvalues  Occupancy  Eigenvalues  Occupancy
  0     7      9.23670    0.00881      9.23709    0.00881
  0     8      9.72177    0.00124      9.72269    0.00123
  0     9      9.74472    0.00101      9.74514    0.00101
  0    10     10.56591    0.00000     10.56658    0.00000

  1     7      8.20246    0.01852      8.20265    0.01852
  1     8      9.04439    0.01838      9.04515    0.01838
  1     9      9.82785    0.00094      9.82841    0.00094
  1    10     10.39045    0.00000     10.39105    0.00000



Forces in eV/Ang:
  0 Cu    0.00000    0.00000    0.00000
  1 Fe    0.00000    0.00000    0.00000

Stress tensor:
    -0.000158     0.004446     0.004446
     0.004446    -0.003811    -0.003810
     0.004446    -0.003810    -0.003811
Writing to 1fe1cu_relaxed.gpw (mode='')

System changes: positions, cell 

Initialize ...

Cu-setup:
  name: Copper
  id: f1c4d45d90492f1bbfdcb091e8418fdf
  Z: 29
  valence: 11
  core: 18
  charge: 0.0
  file: /usr/share/gpaw-setups/Cu.PBE.gz
  cutoffs: 1.06(comp), 2.06(filt), 2.43(core), lmax=2
  valence states:
                energy  radius
    4s(1.00)    -4.609   1.164
    4p(0.00)    -0.698   1.164
    3d(10.00)    -5.039   1.058
    *s          22.603   1.164
    *p          26.513   1.164
    *d          22.172   1.058

  Using partial waves for Cu as LCAO basis

Fe-setup:
  name: Iron
  id: 37abbd8d6c3c35915a9b583b742da910
  Z: 26
  valence: 8
  core: 18
  charge: 0.0
  file: /usr/share/gpaw-setups/Fe.PBE.gz
  cutoffs: 1.06(comp), 2.06(filt), 2.67(core), lmax=2
  valence states:
                energy  radius
    4s(2.00)    -5.291   1.164
    4p(0.00)    -1.326   1.058
    3d(6.00)    -7.505   1.058
    *s          21.920   1.164
    *p          25.885   1.058
    *d          19.706   1.058

  Using partial waves for Fe as LCAO basis

Reference energy: -79640.906441

Spin-polarized calculation.
Magnetic moment: 0.000000

Occupation numbers:
  Fermi-Dirac: width=0.1000 eV

Convergence criteria:
  Maximum total energy change: 0.0005 eV / electron
  Maximum integral of absolute density change: 0.0001 electrons
  Maximum integral of absolute eigenstate change: 4e-08 eV^2
  Maximum number of iterations: 333

Symmetries present (total): 4

  ( 1  0  0)  ( 1  0  0)  (-1  0  0)  (-1  0  0)
  ( 0  1  0)  ( 0  0  1)  ( 0  0 -1)  ( 0 -1  0)
  ( 0  0  1)  ( 0  1  0)  ( 0 -1  0)  ( 0  0 -1)

216 k-points: 6 x 6 x 6 Monkhorst-Pack grid
63 k-points in the irreducible part of the Brillouin zone
       k-points in crystal coordinates                weights
   0:     0.08333333   -0.41666667   -0.41666667          2/216
   1:     0.08333333   -0.25000000   -0.41666667          4/216
   2:     0.08333333   -0.25000000   -0.25000000          2/216
   3:     0.08333333   -0.08333333   -0.41666667          4/216
   4:     0.08333333   -0.08333333   -0.25000000          4/216
   5:     0.08333333   -0.08333333   -0.08333333          2/216
   6:     0.08333333    0.08333333   -0.41666667          4/216
   7:     0.08333333    0.08333333   -0.25000000          4/216
   8:     0.08333333    0.08333333   -0.08333333          4/216
   9:     0.08333333    0.08333333    0.08333333          2/216
          ...
  62:     0.41666667    0.41666667    0.41666667          2/216

Wave functions: Plane wave expansion
  Cutoff energy: 500.000 eV
  Number of coefficients (min, max): 555, 578
  Pulay-stress correction: 0.000000 eV/Ang^3 (de/decut=0.000000)
  Using FFTW library
  ScaLapack parameters: grid=1x1, blocksize=None 

Eigensolver
   Davidson(niter=1, smin=None, normalize=True) 

Densities:
  Coarse grid: 24*10*10 grid
  Fine grid: 48*20*20 grid
  Total Charge: 0.000000 

Density mixing:
  Method: sum
  Backend: pulay
  Linear mixing parameter: 0.05
  Mixing with 5 old densities
  Damping of long wave oscillations: 50 

Hamiltonian:
  XC and Coulomb potentials evaluated on a 48*20*20 grid
  Using the PBE Exchange-Correlation functional
 

Memory estimate:
  Process memory now: 160.53 MiB
  Calculator: 32.98 MiB
    Density: 1.18 MiB
      Arrays: 0.64 MiB
      Localized functions: 0.36 MiB
      Mixer: 0.18 MiB
    Hamiltonian: 0.48 MiB
      Arrays: 0.48 MiB
      XC: 0.00 MiB
      Poisson: 0.00 MiB
      vbar: 0.01 MiB
    Wavefunctions: 31.31 MiB
      Arrays psit_nG: 23.34 MiB
      Eigensolver: 0.30 MiB
      Projections: 1.45 MiB
      Projectors: 5.72 MiB
      PW-descriptor: 0.50 MiB

Total number of cores used: 1

Number of atoms: 2
Number of atomic orbitals: 18
Number of bands in calculation: 21
Bands to converge: occupied states only
Number of valence electrons: 19

... initialized

Initializing position-dependent things.

Density initialized from atomic densities
Creating initial wave functions:
  18 bands from LCAO basis set
  3 bands from random numbers

                  
                  
                  
                  
         Cu       
                  
                  
       Fe         
                  
                  
                  
                  

Positions:
   0 Cu    -0.052159    1.798574    1.798574    ( 0.0000,  0.0000,  0.0000)
   1 Fe     0.000000   -0.000000   -0.000000    ( 0.0000,  0.0000,  0.0000)

Unit cell:
           periodic     x           y           z      points  spacing
  1. axis:    yes   -0.104317    3.597148    3.597148    24     0.1754
  2. axis:    yes    1.741276   -0.004304    1.750793    10     0.2031
  3. axis:    yes    1.741276    1.750793   -0.004304    10     0.2031

  Lengths:   5.088205   2.469279   2.469279
  Angles:   60.343329  60.950501  60.950501

Effective grid spacing dv^(1/3) = 0.2103

                     log10-error:    total        iterations:
           time      wfs    density  energy       fermi  poisson  magmom
iter:   1  14:02:30  +3.85   +inf   -20.259013    34              +0.0002
iter:   2  14:02:35  +0.08   +inf   -20.365821    2               +0.0000
iter:   3  14:02:41  -0.96   +inf   -20.378938    2               +0.0000
iter:   4  14:02:45  +0.58  -0.97   -12.818895    4               -0.0000
iter:   5  14:02:51  -0.84  -1.29   -12.355558    31              -0.0000
iter:   6  14:02:56  -0.17  -1.39   -12.138790    34              -0.0000
iter:   7  14:03:01  -1.91  -1.76   -12.055219    3               -0.0000
iter:   8  14:03:05  -2.56  -1.84   -12.001596    3               -0.0000
iter:   9  14:03:10  -1.81  -1.90   -11.929940    3               -0.0000
iter:  10  14:03:15  -1.93  -2.25   -11.922978    2               -0.0000
iter:  11  14:03:20  -1.89  -2.31   -11.930373    3               -0.0000
iter:  12  14:03:25  -2.56  -2.59   -11.924530    2               -0.0000
iter:  13  14:03:30  -2.47  -2.95   -11.921340    3               -0.0001
iter:  14  14:03:35  -4.06  -3.19   -11.921381    2               -0.0001
iter:  15  14:03:40  -4.36  -3.21   -11.921343    2               -0.0001
iter:  16  14:03:45  -4.27  -3.26   -11.921221    2               -0.0001
iter:  17  14:03:50  -5.04  -3.32   -11.921136    2               -0.0001
iter:  18  14:03:55  -4.26  -3.36   -11.920869    2               -0.0001
iter:  19  14:04:00  -4.97  -3.81   -11.920872    2               -0.0002
iter:  20  14:04:04  -5.83  -3.90   -11.920890    1               -0.0002
iter:  21  14:04:10  -6.56  -3.92   -11.920899    2               -0.0002
iter:  22  14:04:14  -6.31  -3.93   -11.920899    2               -0.0003
iter:  23  14:04:20  -6.39  -4.06   -11.920922    2               -0.0003
iter:  24  14:04:25  -7.43  -4.13   -11.920931    2               -0.0004

Converged after 24 iterations.

Dipole moment: (-0.000000, -0.000000, -0.000000) |e|*Ang

Total magnetic moment: (0.000000, 0.000000, -0.000203)
Local magnetic moments:
   0 Cu ( 0.000000,  0.000000, -0.000006)
   1 Fe ( 0.000000,  0.000000, -0.000158)

Energy contributions relative to reference atoms: (reference = -79640.906441)

Kinetic:         -9.950898
Potential:       +7.728901
External:        +0.000000
XC:              -9.825142
Entropy (-ST):   -0.125432
Local:           +0.188925
--------------------------
Free energy:    -11.983647
Extrapolated:   -11.920931

Spin contamination: 0.000006 electrons
Fermi level: 9.50849

Warning: Showing only first 2 kpts
                      Up                     Down
 Kpt  Band  Eigenvalues  Occupancy  Eigenvalues  Occupancy
  0     7      9.21241    0.00880      9.21231    0.00880
  0     8      9.68622    0.00134      9.68599    0.00134
  0     9      9.70880    0.00110      9.70870    0.00110
  0    10     10.55268    0.00000     10.55251    0.00000

  1     7      8.18693    0.01852      8.18688    0.01852
  1     8      9.01854    0.01838      9.01835    0.01838
  1     9      9.78720    0.00107      9.78706    0.00108
  1    10     10.34633    0.00000     10.34618    0.00000



Forces in eV/Ang:
  0 Cu    0.00000    0.00000    0.00000
  1 Fe    0.00000    0.00000    0.00000

Stress tensor:
     0.000714    -0.000054    -0.000054
    -0.000054    -0.001563    -0.000098
    -0.000054    -0.000098    -0.001563
Writing to 1fe1cu_relaxed.gpw (mode='')

Writing to 1fe1cu_relaxer_final.gpw (mode='')

Timing:                              incl.     excl.
-----------------------------------------------------------
Forces:                              1.978     1.978   0.2% |
Hamiltonian:                         1.855     0.002   0.0% |
 Atomic:                             1.649     0.037   0.0% |
  XC Correction:                     1.612     1.612   0.2% |
 Calculate atomic Hamiltonians:      0.012     0.012   0.0% |
 Communicate:                        0.000     0.000   0.0% |
 Initialize Hamiltonian:             0.000     0.000   0.0% |
 Poisson:                            0.001     0.001   0.0% |
 XC 3D grid:                         0.191     0.191   0.0% |
LCAO initialization:                15.953     1.266   0.1% |
 LCAO eigensolver:                   4.878     0.021   0.0% |
  Calculate projections:             0.027     0.027   0.0% |
  DenseAtomicCorrection:             0.082     0.082   0.0% |
  Distribute overlap matrix:         0.010     0.010   0.0% |
  Orbital Layouts:                   0.123     0.123   0.0% |
  Potential matrix:                  2.808     2.808   0.3% |
  Sum over cells:                    1.806     1.806   0.2% |
 LCAO to grid:                       6.842     6.842   0.7% |
 Set positions (LCAO WFS):           2.967     0.009   0.0% |
  Basic WFS set positions:           0.002     0.002   0.0% |
  Basis functions set positions:     0.000     0.000   0.0% |
  TCI: Calculate S, T, P:            2.956     2.956   0.3% |
PWDescriptor:                        0.036     0.036   0.0% |
SCF-cycle:                         856.413     7.537   0.8% |
 Davidson:                         739.610   257.841  28.3% |----------|
  Subspace diag:                   204.193     1.958   0.2% |
   calc_h_matrix:                  130.766   130.766  14.3% |-----|
   diagonalize:                     41.162    41.162   4.5% |-|
   rotate_psi:                      30.308    30.308   3.3% ||
  calc. matrices:                  160.228   160.228  17.6% |------|
  diagonalize:                      86.932    86.932   9.5% |---|
  rotate_psi:                       30.416    30.416   3.3% ||
 Density:                           39.740     0.003   0.0% |
  Atomic density matrices:           0.817     0.817   0.1% |
  Mix:                               0.653     0.653   0.1% |
  Multipole moments:                 0.016     0.016   0.0% |
  Pseudo density:                   38.251    38.078   4.2% |-|
   Symmetrize density:               0.173     0.173   0.0% |
 Hamiltonian:                       49.600     0.053   0.0% |
  Atomic:                           42.591     1.621   0.2% |
   XC Correction:                   40.970    40.970   4.5% |-|
  Calculate atomic Hamiltonians:     0.353     0.353   0.0% |
  Communicate:                       0.001     0.001   0.0% |
  Poisson:                           0.019     0.019   0.0% |
  XC 3D grid:                        6.584     6.584   0.7% |
 Orthonormalize:                    19.926     0.075   0.0% |
  calc_s_matrix:                     0.446     0.446   0.0% |
  inverse-cholesky:                 17.462    17.462   1.9% ||
  projections:                       1.318     1.318   0.1% |
  rotate_psi_s:                      0.625     0.625   0.1% |
Set symmetry:                        0.036     0.036   0.0% |
Stress:                             28.628     0.000   0.0% |
 Stress tensor:                     28.628    28.628   3.1% ||
Other:                               7.479     7.479   0.8% |
-----------------------------------------------------------
Total:                                       912.378 100.0%

Date: Fri Nov 16 14:04:31 2018
