
  ___ ___ ___ _ _ _  
 |   |   |_  | | | | 
 | | | | | . | | | | 
 |__ |  _|___|_____|  1.4.0
 |___|_|             

User:   rasmus@AsusN550
Date:   Fri Nov 30 09:09:46 2018
Arch:   x86_64
Pid:    18323
Python: 3.6.3
gpaw:   /home/rasmus/anaconda3/lib/python3.6/site-packages/gpaw
_gpaw:  /home/rasmus/anaconda3/lib/python3.6/site-packages/
        _gpaw.cpython-36m-x86_64-linux-gnu.so
ase:    /home/rasmus/anaconda3/lib/python3.6/site-packages/ase (version 3.17.0)
numpy:  /home/rasmus/.local/lib/python3.6/site-packages/numpy (version 1.15.1)
scipy:  /home/rasmus/.local/lib/python3.6/site-packages/scipy (version 1.1.0)
units:  Angstrom and eV
cores:  1

Input parameters:
  kpts: [10 10 10]
  mode: {ecut: 500.0,
         name: pw}
  nbands: -25
  occupations: {name: fermi-dirac,
                width: 0.1}
  spinpol: True
  xc: PBE

System changes: positions, numbers, cell, pbc, initial_charges, initial_magmoms 

Initialize ...

Fe-setup:
  name: Iron
  id: 37abbd8d6c3c35915a9b583b742da910
  Z: 26
  valence: 8
  core: 18
  charge: 0.0
  file: /usr/share/gpaw-setups/Fe.PBE.gz
  cutoffs: 1.06(comp), 2.06(filt), 2.67(core), lmax=2
  valence states:
                energy  radius
    4s(2.00)    -5.291   1.164
    4p(0.00)    -1.326   1.058
    3d(6.00)    -7.505   1.058
    *s          21.920   1.164
    *p          25.885   1.058
    *d          19.706   1.058

  Using partial waves for Fe as LCAO basis

Reference energy: -276955.636799

Spin-polarized calculation.
Magnetic moment: 17.600000

Occupation numbers:
  Fermi-Dirac: width=0.1000 eV

Convergence criteria:
  Maximum total energy change: 0.0005 eV / electron
  Maximum integral of absolute density change: 0.0001 electrons
  Maximum integral of absolute eigenstate change: 4e-08 eV^2
  Maximum number of iterations: 333

Symmetries present (total): 6

  ( 1  0  0)  ( 1  0  0)  ( 0  1  0)  ( 0  1  0)  ( 0  0  1)  ( 0  0  1)
  ( 0  1  0)  ( 0  0  1)  ( 1  0  0)  ( 0  0  1)  ( 1  0  0)  ( 0  1  0)
  ( 0  0  1)  ( 0  1  0)  ( 0  0  1)  ( 1  0  0)  ( 0  1  0)  ( 1  0  0)

1000 k-points: 10 x 10 x 10 Monkhorst-Pack grid
110 k-points in the irreducible part of the Brillouin zone
       k-points in crystal coordinates                weights
   0:     0.05000000    0.05000000   -0.05000000          6/1000
   1:     0.05000000    0.05000000    0.05000000          2/1000
   2:     0.15000000   -0.05000000   -0.05000000          6/1000
   3:     0.15000000    0.05000000   -0.15000000         12/1000
   4:     0.15000000    0.05000000   -0.05000000         12/1000
   5:     0.15000000    0.05000000    0.05000000          6/1000
   6:     0.15000000    0.15000000   -0.15000000          6/1000
   7:     0.15000000    0.15000000   -0.05000000          6/1000
   8:     0.15000000    0.15000000    0.05000000          6/1000
   9:     0.15000000    0.15000000    0.15000000          2/1000
          ...
 109:     0.45000000    0.45000000    0.45000000          2/1000

Wave functions: Plane wave expansion
  Cutoff energy: 500.000 eV
  Number of coefficients (min, max): 1769, 1802
  Pulay-stress correction: 0.000000 eV/Ang^3 (de/decut=0.000000)
  Using FFTW library
  ScaLapack parameters: grid=1x1, blocksize=None 

Eigensolver
   Davidson(niter=1, smin=None, normalize=True) 

Densities:
  Coarse grid: 20*20*20 grid
  Fine grid: 40*40*40 grid
  Total Charge: 0.000000 

Density mixing:
  Method: sum
  Backend: pulay
  Linear mixing parameter: 0.05
  Mixing with 5 old densities
  Damping of long wave oscillations: 50 

Hamiltonian:
  XC and Coulomb potentials evaluated on a 40*40*40 grid
  Using the PBE Exchange-Correlation functional
 

Memory estimate:
  Process memory now: 75.28 MiB
  Calculator: 464.35 MiB
    Density: 3.95 MiB
      Arrays: 2.14 MiB
      Localized functions: 1.20 MiB
      Mixer: 0.61 MiB
    Hamiltonian: 1.61 MiB
      Arrays: 1.59 MiB
      XC: 0.00 MiB
      Poisson: 0.00 MiB
      vbar: 0.02 MiB
    Wavefunctions: 458.80 MiB
      Arrays psit_nG: 399.25 MiB
      Eigensolver: 2.62 MiB
      Projections: 31.90 MiB
      Projectors: 22.47 MiB
      PW-descriptor: 2.55 MiB

Total number of cores used: 1

Number of atoms: 8
Number of atomic orbitals: 72
Number of bands in calculation: 66
Bands to converge: occupied states only
Number of valence electrons: 64

... initialized

Initializing position-dependent things.

Density initialized from atomic densities
Creating initial wave functions:
  66 bands from LCAO basis set

                            
                            
                            
                            
                            
           Fe               
         Fe    Fe           
             Fe             
             Fe             
           Fe    Fe         
               Fe           
                            
                            
                            
                            
                            

Positions:
   0 Fe     0.000003    0.000003    0.000003    ( 0.0000,  0.0000,  2.2000)
   1 Fe     1.300003    1.300003   -1.299997    ( 0.0000,  0.0000,  2.2000)
   2 Fe     1.300003   -1.299997    1.300003    ( 0.0000,  0.0000,  2.2000)
   3 Fe     2.600003    0.000003    0.000003    ( 0.0000,  0.0000,  2.2000)
   4 Fe    -1.299997    1.300003    1.300003    ( 0.0000,  0.0000,  2.2000)
   5 Fe     0.000003    2.600003    0.000003    ( 0.0000,  0.0000,  2.2000)
   6 Fe     0.000003    0.000003    2.600003    ( 0.0000,  0.0000,  2.2000)
   7 Fe     1.300003    1.300003    1.300003    ( 0.0000,  0.0000,  2.2000)

Unit cell:
           periodic     x           y           z      points  spacing
  1. axis:    yes   -2.600000    2.600000    2.600000    20     0.1838
  2. axis:    yes    2.600000   -2.600000    2.600000    20     0.1838
  3. axis:    yes    2.600000    2.600000   -2.600000    20     0.1838

  Lengths:   4.503332   4.503332   4.503332
  Angles:  109.471221 109.471221 109.471221

Effective grid spacing dv^(1/3) = 0.2064

Timing:                              incl.     excl.
-----------------------------------------------------------
Hamiltonian:                         1.194     0.000   0.0% |
 Atomic:                             1.077     0.009   0.0% |
  XC Correction:                     1.068     1.068   2.2% ||
 Calculate atomic Hamiltonians:      0.012     0.012   0.0% |
 Communicate:                        0.000     0.000   0.0% |
 Initialize Hamiltonian:             0.000     0.000   0.0% |
 Poisson:                            0.000     0.000   0.0% |
 XC 3D grid:                         0.104     0.104   0.2% |
LCAO initialization:                36.787     0.067   0.1% |
 LCAO eigensolver:                   5.001     0.010   0.0% |
  Calculate projections:             0.261     0.261   0.5% |
  DenseAtomicCorrection:             0.359     0.359   0.8% |
  Distribute overlap matrix:         0.007     0.007   0.0% |
  Orbital Layouts:                   0.947     0.947   2.0% ||
  Potential matrix:                  2.323     2.323   4.9% |-|
  Sum over cells:                    1.093     1.093   2.3% ||
 LCAO to grid:                      28.205    28.205  59.4% |-----------------------|
 Set positions (LCAO WFS):           3.514     0.004   0.0% |
  Basic WFS set positions:           0.001     0.001   0.0% |
  Basis functions set positions:     0.000     0.000   0.0% |
  TCI: Calculate S, T, P:            3.509     3.509   7.4% |--|
PWDescriptor:                        0.024     0.024   0.1% |
SCF-cycle:                           8.271     0.001   0.0% |
 Davidson:                           6.063     1.988   4.2% |-|
  Subspace diag:                     1.911     0.002   0.0% |
   calc_h_matrix:                    0.950     0.950   2.0% ||
   diagonalize:                      0.150     0.150   0.3% |
   rotate_psi:                       0.809     0.809   1.7% ||
  calc. matrices:                    1.102     1.102   2.3% ||
  diagonalize:                       0.281     0.281   0.6% |
  rotate_psi:                        0.781     0.781   1.6% ||
 Orthonormalize:                     2.207     0.003   0.0% |
  calc_s_matrix:                     0.243     0.243   0.5% |
  inverse-cholesky:                  0.618     0.618   1.3% ||
  projections:                       0.939     0.939   2.0% ||
  rotate_psi_s:                      0.405     0.405   0.9% |
Set symmetry:                        0.034     0.034   0.1% |
Other:                               1.169     1.169   2.5% ||
-----------------------------------------------------------
Total:                                        47.480 100.0%

Date: Fri Nov 30 09:10:33 2018
