
  ___ ___ ___ _ _ _  
 |   |   |_  | | | | 
 | | | | | . | | | | 
 |__ |  _|___|_____|  1.4.0
 |___|_|             

User:   rasmus@AsusN550
Date:   Thu Nov 29 16:09:59 2018
Arch:   x86_64
Pid:    12798
Python: 3.6.3
gpaw:   /home/rasmus/anaconda3/lib/python3.6/site-packages/gpaw
_gpaw:  /home/rasmus/anaconda3/lib/python3.6/site-packages/
        _gpaw.cpython-36m-x86_64-linux-gnu.so
ase:    /home/rasmus/anaconda3/lib/python3.6/site-packages/ase (version 3.17.0)
numpy:  /home/rasmus/.local/lib/python3.6/site-packages/numpy (version 1.15.1)
scipy:  /home/rasmus/.local/lib/python3.6/site-packages/scipy (version 1.1.0)
units:  Angstrom and eV
cores:  1

Input parameters:
  kpts: [10 10 10]
  mode: {ecut: 500.0,
         name: pw}
  nbands: -25
  occupations: {name: fermi-dirac,
                width: 0.1}
  spinpol: True
  xc: PBE

System changes: positions, numbers, cell, pbc, initial_charges, initial_magmoms 

Initialize ...

Fe-setup:
  name: Iron
  id: 37abbd8d6c3c35915a9b583b742da910
  Z: 26
  valence: 8
  core: 18
  charge: 0.0
  file: /usr/share/gpaw-setups/Fe.PBE.gz
  cutoffs: 1.06(comp), 2.06(filt), 2.67(core), lmax=2
  valence states:
                energy  radius
    4s(2.00)    -5.291   1.164
    4p(0.00)    -1.326   1.058
    3d(6.00)    -7.505   1.058
    *s          21.920   1.164
    *p          25.885   1.058
    *d          19.706   1.058

  Using partial waves for Fe as LCAO basis

Cu-setup:
  name: Copper
  id: f1c4d45d90492f1bbfdcb091e8418fdf
  Z: 29
  valence: 11
  core: 18
  charge: 0.0
  file: /usr/share/gpaw-setups/Cu.PBE.gz
  cutoffs: 1.06(comp), 2.06(filt), 2.43(core), lmax=2
  valence states:
                energy  radius
    4s(1.00)    -4.609   1.164
    4p(0.00)    -0.698   1.164
    3d(10.00)    -5.039   1.058
    *s          22.603   1.164
    *p          26.513   1.164
    *d          22.172   1.058

  Using partial waves for Cu as LCAO basis

Reference energy: -287357.634041

Spin-polarized calculation.
Magnetic moment: 15.400000

Occupation numbers:
  Fermi-Dirac: width=0.1000 eV

Convergence criteria:
  Maximum total energy change: 0.0005 eV / electron
  Maximum integral of absolute density change: 0.0001 electrons
  Maximum integral of absolute eigenstate change: 4e-08 eV^2
  Maximum number of iterations: 333

Symmetries present (total): 6

  ( 1  0  0)  ( 1  0  0)  ( 0  1  0)  ( 0  1  0)  ( 0  0  1)  ( 0  0  1)
  ( 0  1  0)  ( 0  0  1)  ( 1  0  0)  ( 0  0  1)  ( 1  0  0)  ( 0  1  0)
  ( 0  0  1)  ( 0  1  0)  ( 0  0  1)  ( 1  0  0)  ( 0  1  0)  ( 1  0  0)

1000 k-points: 10 x 10 x 10 Monkhorst-Pack grid
110 k-points in the irreducible part of the Brillouin zone
       k-points in crystal coordinates                weights
   0:     0.05000000    0.05000000   -0.05000000          6/1000
   1:     0.05000000    0.05000000    0.05000000          2/1000
   2:     0.15000000   -0.05000000   -0.05000000          6/1000
   3:     0.15000000    0.05000000   -0.15000000         12/1000
   4:     0.15000000    0.05000000   -0.05000000         12/1000
   5:     0.15000000    0.05000000    0.05000000          6/1000
   6:     0.15000000    0.15000000   -0.15000000          6/1000
   7:     0.15000000    0.15000000   -0.05000000          6/1000
   8:     0.15000000    0.15000000    0.05000000          6/1000
   9:     0.15000000    0.15000000    0.15000000          2/1000
          ...
 109:     0.45000000    0.45000000    0.45000000          2/1000

Wave functions: Plane wave expansion
  Cutoff energy: 500.000 eV
  Number of coefficients (min, max): 1769, 1802
  Pulay-stress correction: 0.000000 eV/Ang^3 (de/decut=0.000000)
  Using FFTW library
  ScaLapack parameters: grid=1x1, blocksize=None 

Eigensolver
   Davidson(niter=1, smin=None, normalize=True) 

Densities:
  Coarse grid: 20*20*20 grid
  Fine grid: 40*40*40 grid
  Total Charge: 0.000000 

Density mixing:
  Method: sum
  Backend: pulay
  Linear mixing parameter: 0.05
  Mixing with 5 old densities
  Damping of long wave oscillations: 50 

Hamiltonian:
  XC and Coulomb potentials evaluated on a 40*40*40 grid
  Using the PBE Exchange-Correlation functional
 

Memory estimate:
  Process memory now: 76.91 MiB
  Calculator: 473.66 MiB
    Density: 4.25 MiB
      Arrays: 2.14 MiB
      Localized functions: 1.51 MiB
      Mixer: 0.61 MiB
    Hamiltonian: 1.62 MiB
      Arrays: 1.59 MiB
      XC: 0.00 MiB
      Poisson: 0.00 MiB
      vbar: 0.04 MiB
    Wavefunctions: 467.78 MiB
      Arrays psit_nG: 399.25 MiB
      Eigensolver: 2.62 MiB
      Projections: 31.90 MiB
      Projectors: 31.46 MiB
      PW-descriptor: 2.55 MiB

Total number of cores used: 1

Number of atoms: 8
Number of atomic orbitals: 72
Number of bands in calculation: 66
Bands to converge: occupied states only
Number of valence electrons: 67

... initialized

Initializing position-dependent things.

Density initialized from atomic densities
Timing:                              incl.     excl.
-----------------------------------------------------------
Hamiltonian:                         1.168     0.000   0.0% |
 Atomic:                             1.052     0.009   0.1% |
  XC Correction:                     1.042     1.042  13.2% |----|
 Calculate atomic Hamiltonians:      0.012     0.012   0.1% |
 Communicate:                        0.000     0.000   0.0% |
 Initialize Hamiltonian:             0.000     0.000   0.0% |
 Poisson:                            0.000     0.000   0.0% |
 XC 3D grid:                         0.104     0.104   1.3% ||
LCAO initialization:                 5.054     0.206   2.6% ||
 LCAO eigensolver:                   1.445     0.001   0.0% |
  Calculate projections:             0.024     0.024   0.3% |
  DenseAtomicCorrection:             0.034     0.034   0.4% |
  Distribute overlap matrix:         0.001     0.001   0.0% |
  Orbital Layouts:                   0.118     0.118   1.5% ||
  Potential matrix:                  1.169     1.169  14.8% |-----|
  Sum over cells:                    0.099     0.099   1.3% ||
 Set positions (LCAO WFS):           3.402     0.004   0.0% |
  Basic WFS set positions:           0.001     0.001   0.0% |
  Basis functions set positions:     0.000     0.000   0.0% |
  TCI: Calculate S, T, P:            3.398     3.398  42.9% |----------------|
PWDescriptor:                        0.024     0.024   0.3% |
Set symmetry:                        0.025     0.025   0.3% |
Other:                               1.641     1.641  20.7% |-------|
-----------------------------------------------------------
Total:                                         7.911 100.0%

Date: Thu Nov 29 16:10:07 2018
