
  ___ ___ ___ _ _ _  
 |   |   |_  | | | | 
 | | | | | . | | | | 
 |__ |  _|___|_____|  1.4.0
 |___|_|             

User:   rasmus@AsusN550
Date:   Thu Dec 13 15:44:32 2018
Arch:   x86_64
Pid:    11829
Python: 3.6.3
gpaw:   /home/rasmus/anaconda3/lib/python3.6/site-packages/gpaw
_gpaw:  /home/rasmus/anaconda3/lib/python3.6/site-packages/
        _gpaw.cpython-36m-x86_64-linux-gnu.so
ase:    /home/rasmus/anaconda3/lib/python3.6/site-packages/ase (version 3.17.0)
numpy:  /home/rasmus/.local/lib/python3.6/site-packages/numpy (version 1.15.1)
scipy:  /home/rasmus/.local/lib/python3.6/site-packages/scipy (version 1.1.0)
units:  Angstrom and eV
cores:  1

Reading from fecu_v2_gs.gpw
Read dipole, energy, free_energy, magmom, magmoms
Reading input parameters:
  kpts: [8 8 8]
  mode: {ecut: 600.0,
         name: pw}
  occupations: {name: fermi-dirac,
                width: 0.1}
  random: True
  spinpol: True
  xc: PBE

Initialize ...

Fe-setup:
  name: Iron
  id: 37abbd8d6c3c35915a9b583b742da910
  Z: 26
  valence: 8
  core: 18
  charge: 0.0
  file: /usr/share/gpaw-setups/Fe.PBE.gz
  cutoffs: 1.06(comp), 2.06(filt), 2.67(core), lmax=2
  valence states:
                energy  radius
    4s(2.00)    -5.291   1.164
    4p(0.00)    -1.326   1.058
    3d(6.00)    -7.505   1.058
    *s          21.920   1.164
    *p          25.885   1.058
    *d          19.706   1.058

  Using partial waves for Fe as LCAO basis

Cu-setup:
  name: Copper
  id: f1c4d45d90492f1bbfdcb091e8418fdf
  Z: 29
  valence: 11
  core: 18
  charge: 0.0
  file: /usr/share/gpaw-setups/Cu.PBE.gz
  cutoffs: 1.06(comp), 2.06(filt), 2.43(core), lmax=2
  valence states:
                energy  radius
    4s(1.00)    -4.609   1.164
    4p(0.00)    -0.698   1.164
    3d(10.00)    -5.039   1.058
    *s          22.603   1.164
    *p          26.513   1.164
    *d          22.172   1.058

  Using partial waves for Cu as LCAO basis

Reference energy: -318563.625764

Spin-polarized calculation.
Magnetic moment: 8.800000

Occupation numbers:
  Fermi-Dirac: width=0.1000 eV

Convergence criteria:
  Maximum total energy change: 0.0005 eV / electron
  Maximum integral of absolute density change: 0.0001 electrons
  Maximum integral of absolute eigenstate change: 4e-08 eV^2
  Maximum number of iterations: 333

Symmetries present (total): 2

  ( 1  0  0)  ( 1  0  0)
  ( 0  1  0)  ( 0  0  1)
  ( 0  0  1)  ( 0  1  0)

512 k-points: 8 x 8 x 8 Monkhorst-Pack grid
144 k-points in the irreducible part of the Brillouin zone
       k-points in crystal coordinates                weights
   0:     0.06250000   -0.43750000   -0.43750000          2/512
   1:     0.06250000   -0.31250000   -0.43750000          4/512
   2:     0.06250000   -0.31250000   -0.31250000          2/512
   3:     0.06250000   -0.18750000   -0.43750000          4/512
   4:     0.06250000   -0.18750000   -0.31250000          4/512
   5:     0.06250000   -0.18750000   -0.18750000          2/512
   6:     0.06250000   -0.06250000   -0.43750000          4/512
   7:     0.06250000   -0.06250000   -0.31250000          4/512
   8:     0.06250000   -0.06250000   -0.18750000          4/512
   9:     0.06250000   -0.06250000   -0.06250000          2/512
          ...
 143:     0.43750000    0.43750000    0.43750000          2/512

Wave functions: Plane wave expansion
  Cutoff energy: 600.000 eV
  Number of coefficients (min, max): 2323, 2378
  Pulay-stress correction: 0.000000 eV/Ang^3 (de/decut=0.000000)
  Using FFTW library
  ScaLapack parameters: grid=1x1, blocksize=None 

Eigensolver
   Davidson(niter=1, smin=None, normalize=True) 

Densities:
  Coarse grid: 21*21*21 grid
  Fine grid: 42*42*42 grid
  Total Charge: 0.000000 

Density mixing:
  Method: sum
  Backend: pulay
  Linear mixing parameter: 0.05
  Mixing with 5 old densities
  Damping of long wave oscillations: 50 

Hamiltonian:
  XC and Coulomb potentials evaluated on a 42*42*42 grid
  Using the PBE Exchange-Correlation functional
 

Memory estimate:
  Process memory now: 98.09 MiB
  Calculator: 866.73 MiB
    Density: 4.93 MiB
      Arrays: 2.47 MiB
      Localized functions: 1.75 MiB
      Mixer: 0.71 MiB
    Hamiltonian: 1.88 MiB
      Arrays: 1.84 MiB
      XC: 0.00 MiB
      Poisson: 0.00 MiB
      vbar: 0.04 MiB
    Wavefunctions: 859.92 MiB
      Arrays psit_nG: 752.41 MiB
      Eigensolver: 3.59 MiB
      Projections: 45.56 MiB
      Projectors: 54.13 MiB
      PW-descriptor: 4.22 MiB

Total number of cores used: 1

Number of atoms: 8
Number of atomic orbitals: 72
Number of bands in calculation: 72
Bands to converge: occupied states only
Number of valence electrons: 76

... initialized

Input parameters:
  convergence: {bands: 8}
  fixdensity: True
  kpts: {npoints: 60,
         path: GHPNG}
  nbands: -50
  symmetry: off

Initialize ...

Fe-setup:
  name: Iron
  id: 37abbd8d6c3c35915a9b583b742da910
  Z: 26
  valence: 8
  core: 18
  charge: 0.0
  file: /usr/share/gpaw-setups/Fe.PBE.gz
  cutoffs: 1.06(comp), 2.06(filt), 2.67(core), lmax=2
  valence states:
                energy  radius
    4s(2.00)    -5.291   1.164
    4p(0.00)    -1.326   1.058
    3d(6.00)    -7.505   1.058
    *s          21.920   1.164
    *p          25.885   1.058
    *d          19.706   1.058

  Using partial waves for Fe as LCAO basis

Cu-setup:
  name: Copper
  id: f1c4d45d90492f1bbfdcb091e8418fdf
  Z: 29
  valence: 11
  core: 18
  charge: 0.0
  file: /usr/share/gpaw-setups/Cu.PBE.gz
  cutoffs: 1.06(comp), 2.06(filt), 2.43(core), lmax=2
  valence states:
                energy  radius
    4s(1.00)    -4.609   1.164
    4p(0.00)    -0.698   1.164
    3d(10.00)    -5.039   1.058
    *s          22.603   1.164
    *p          26.513   1.164
    *d          22.172   1.058

  Using partial waves for Cu as LCAO basis

Reference energy: -318563.625764

Spin-polarized calculation.
Magnetic moment: 8.800000

Occupation numbers:
  Fixed Fermi level
  Fermi-Dirac: width=0.1000 eV

Convergence criteria:
  Maximum total energy change: 0.0005 eV / electron
  Maximum integral of absolute density change: 0.0001 electrons
  Maximum integral of absolute eigenstate change: 4e-08 eV^2
  Maximum number of iterations: 333

Symmetries present (total): 1

  ( 1  0  0)
  ( 0  1  0)
  ( 0  0  1)

60 k-points
60 k-points in the irreducible part of the Brillouin zone
       k-points in crystal coordinates                weights
   0:     0.00000000    0.00000000    0.00000000       0.01666667
   1:     0.02631579   -0.02631579    0.02631579       0.01666667
   2:     0.05263158   -0.05263158    0.05263158       0.01666667
   3:     0.07894737   -0.07894737    0.07894737       0.01666667
   4:     0.10526316   -0.10526316    0.10526316       0.01666667
   5:     0.13157895   -0.13157895    0.13157895       0.01666667
   6:     0.15789474   -0.15789474    0.15789474       0.01666667
   7:     0.18421053   -0.18421053    0.18421053       0.01666667
   8:     0.21052632   -0.21052632    0.21052632       0.01666667
   9:     0.23684211   -0.23684211    0.23684211       0.01666667
          ...
  59:     0.00000000    0.00000000    0.00000000       0.01666667

Wave functions: Plane wave expansion
  Cutoff energy: 600.000 eV
  Number of coefficients (min, max): 2315, 2382
  Pulay-stress correction: 0.000000 eV/Ang^3 (de/decut=0.000000)
  Using FFTW library
  ScaLapack parameters: grid=1x1, blocksize=None 

Eigensolver
   Davidson(niter=1, smin=None, normalize=True) 

No density mixing

Memory estimate:
  Process memory now: 144.22 MiB
  Calculator: 461.67 MiB
    Density: 4.93 MiB
      Arrays: 2.47 MiB
      Localized functions: 1.75 MiB
      Mixer: 0.71 MiB
    Hamiltonian: 1.88 MiB
      Arrays: 1.84 MiB
      XC: 0.00 MiB
      Poisson: 0.00 MiB
      vbar: 0.04 MiB
    Wavefunctions: 454.87 MiB
      Arrays psit_nG: 401.26 MiB
      Eigensolver: 4.82 MiB
      Projections: 24.26 MiB
      Projectors: 22.56 MiB
      PW-descriptor: 1.96 MiB

Total number of cores used: 1

Number of atoms: 8
Number of atomic orbitals: 72
Number of bands in calculation: 92
Bands to converge: 8 lowest bands
Number of valence electrons: 76

... initialized

Initializing position-dependent things.

Creating initial wave functions:
  72 bands from LCAO basis set
  20 bands from random numbers

                            
                            
                            
                            
                            
           Fe               
         Fe    Fe           
             Fe             
             Cu             
           Cu    Cu         
               Cu           
                            
                            
                            
                            
                            

Positions:
   0 Fe    -1.299997    1.300003    1.300003    ( 0.0000,  0.0000,  2.2000)
   1 Fe     0.000003    2.600003    0.000003    ( 0.0000,  0.0000,  2.2000)
   2 Fe     0.000003    0.000003    2.600003    ( 0.0000,  0.0000,  2.2000)
   3 Fe     1.300003    1.300003    1.300003    ( 0.0000,  0.0000,  2.2000)
   4 Cu     0.000003    0.000003    0.000003    ( 0.0000,  0.0000,  0.0000)
   5 Cu     1.300003    1.300003   -1.299997    ( 0.0000,  0.0000,  0.0000)
   6 Cu     1.300003   -1.299997    1.300003    ( 0.0000,  0.0000,  0.0000)
   7 Cu     2.600003    0.000003    0.000003    ( 0.0000,  0.0000,  0.0000)

Unit cell:
           periodic     x           y           z      points  spacing
  1. axis:    yes   -2.600000    2.600000    2.600000    21     0.1751
  2. axis:    yes    2.600000   -2.600000    2.600000    21     0.1751
  3. axis:    yes    2.600000    2.600000   -2.600000    21     0.1751

  Lengths:   4.503332   4.503332   4.503332
  Angles:  109.471221 109.471221 109.471221

Effective grid spacing dv^(1/3) = 0.1965

                     log10-error:    total        iterations:
           time      wfs    density  energy       fermi  poisson  magmom
iter:   1  15:46:36  +0.50          -40.651455    2               +7.6535
Timing:                              incl.     excl.
-----------------------------------------------------------
Hamiltonian:                         1.189     0.000   0.0% |
 Atomic:                             1.056     0.001   0.0% |
  XC Correction:                     1.054     1.054   0.6% |
 Calculate atomic Hamiltonians:      0.014     0.014   0.0% |
 Communicate:                        0.000     0.000   0.0% |
 Poisson:                            0.000     0.000   0.0% |
 XC 3D grid:                         0.119     0.119   0.1% |
LCAO initialization:                25.544     0.364   0.2% |
 LCAO eigensolver:                   4.079     0.005   0.0% |
  Calculate projections:             0.154     0.154   0.1% |
  DenseAtomicCorrection:             0.192     0.192   0.1% |
  Distribute overlap matrix:         0.004     0.004   0.0% |
  Orbital Layouts:                   0.520     0.520   0.3% |
  Potential matrix:                  2.646     2.646   1.6% ||
  Sum over cells:                    0.558     0.558   0.3% |
 LCAO to grid:                      19.164    19.164  11.5% |----|
 Set positions (LCAO WFS):           1.937     0.002   0.0% |
  Basic WFS set positions:           0.000     0.000   0.0% |
  Basis functions set positions:     0.000     0.000   0.0% |
  TCI: Calculate S, T, P:            1.935     1.935   1.2% |
PWDescriptor:                        0.056     0.056   0.0% |
Redistribute:                        0.000     0.000   0.0% |
SCF-cycle:                         138.151     0.041   0.0% |
 Davidson:                         121.218    29.576  17.8% |------|
  Subspace diag:                    37.108     0.031   0.0% |
   calc_h_matrix:                   14.521    14.521   8.7% |--|
   diagonalize:                      2.046     2.046   1.2% |
   rotate_psi:                      20.510    20.510  12.3% |----|
  calc. matrices:                   28.642    28.642  17.2% |------|
  diagonalize:                       5.230     5.230   3.1% ||
  rotate_psi:                       20.662    20.662  12.4% |----|
 Orthonormalize:                    16.892     0.018   0.0% |
  calc_s_matrix:                     2.181     2.181   1.3% ||
  inverse-cholesky:                  0.763     0.763   0.5% |
  projections:                       7.340     7.340   4.4% |-|
  rotate_psi_s:                      6.589     6.589   4.0% |-|
Set symmetry:                        0.010     0.010   0.0% |
Other:                               1.530     1.530   0.9% |
-----------------------------------------------------------
Total:                                       166.479 100.0%

Memory usage: 602.98 MiB
Date: Thu Dec 13 15:47:19 2018
