
  ___ ___ ___ _ _ _  
 |   |   |_  | | | | 
 | | | | | . | | | | 
 |__ |  _|___|_____|  1.4.0
 |___|_|             

User:   rasmus@AsusN550
Date:   Fri Dec  7 11:31:22 2018
Arch:   x86_64
Pid:    9958
Python: 3.6.3
gpaw:   /home/rasmus/anaconda3/lib/python3.6/site-packages/gpaw
_gpaw:  /home/rasmus/anaconda3/lib/python3.6/site-packages/
        _gpaw.cpython-36m-x86_64-linux-gnu.so
ase:    /home/rasmus/anaconda3/lib/python3.6/site-packages/ase (version 3.17.0)
numpy:  /home/rasmus/.local/lib/python3.6/site-packages/numpy (version 1.15.1)
scipy:  /home/rasmus/.local/lib/python3.6/site-packages/scipy (version 1.1.0)
units:  Angstrom and eV
cores:  1

Input parameters:
  kpts: [8 8 8]
  mode: {ecut: 500.0,
         name: pw}
  occupations: {name: fermi-dirac,
                width: 0.1}
  random: True
  spinpol: True
  xc: PBE

System changes: positions, numbers, cell, pbc, initial_charges, initial_magmoms 

Initialize ...

Cu-setup:
  name: Copper
  id: f1c4d45d90492f1bbfdcb091e8418fdf
  Z: 29
  valence: 11
  core: 18
  charge: 0.0
  file: /usr/share/gpaw-setups/Cu.PBE.gz
  cutoffs: 1.06(comp), 2.06(filt), 2.43(core), lmax=2
  valence states:
                energy  radius
    4s(1.00)    -4.609   1.164
    4p(0.00)    -0.698   1.164
    3d(10.00)    -5.039   1.058
    *s          22.603   1.164
    *p          26.513   1.164
    *d          22.172   1.058

  Using partial waves for Cu as LCAO basis

Fe-setup:
  name: Iron
  id: 37abbd8d6c3c35915a9b583b742da910
  Z: 26
  valence: 8
  core: 18
  charge: 0.0
  file: /usr/share/gpaw-setups/Fe.PBE.gz
  cutoffs: 1.06(comp), 2.06(filt), 2.67(core), lmax=2
  valence states:
                energy  radius
    4s(2.00)    -5.291   1.164
    4p(0.00)    -1.326   1.058
    3d(6.00)    -7.505   1.058
    *s          21.920   1.164
    *p          25.885   1.058
    *d          19.706   1.058

  Using partial waves for Fe as LCAO basis

Reference energy: -79640.906441

Spin-polarized calculation.
Magnetic moment: 2.200000

Occupation numbers:
  Fermi-Dirac: width=0.1000 eV

Convergence criteria:
  Maximum total energy change: 0.0005 eV / electron
  Maximum integral of absolute density change: 0.0001 electrons
  Maximum integral of absolute eigenstate change: 4e-08 eV^2
  Maximum number of iterations: 333

Symmetries present (total): 4

  ( 1  0  0)  ( 1  0  0)  (-1  0  0)  (-1  0  0)
  ( 0  1  0)  ( 0  0  1)  ( 0  0 -1)  ( 0 -1  0)
  ( 0  0  1)  ( 0  1  0)  ( 0 -1  0)  ( 0  0 -1)

512 k-points: 8 x 8 x 8 Monkhorst-Pack grid
144 k-points in the irreducible part of the Brillouin zone
       k-points in crystal coordinates                weights
   0:     0.06250000   -0.43750000   -0.43750000          2/512
   1:     0.06250000   -0.31250000   -0.43750000          4/512
   2:     0.06250000   -0.31250000   -0.31250000          2/512
   3:     0.06250000   -0.18750000   -0.43750000          4/512
   4:     0.06250000   -0.18750000   -0.31250000          4/512
   5:     0.06250000   -0.18750000   -0.18750000          2/512
   6:     0.06250000   -0.06250000   -0.43750000          4/512
   7:     0.06250000   -0.06250000   -0.31250000          4/512
   8:     0.06250000   -0.06250000   -0.18750000          4/512
   9:     0.06250000   -0.06250000   -0.06250000          2/512
          ...
 143:     0.43750000    0.43750000    0.43750000          2/512

Wave functions: Plane wave expansion
  Cutoff energy: 500.000 eV
  Number of coefficients (min, max): 676, 710
  Pulay-stress correction: 0.000000 eV/Ang^3 (de/decut=0.000000)
  Using FFTW library
  ScaLapack parameters: grid=1x1, blocksize=None 

Eigensolver
   Davidson(niter=1, smin=None, normalize=True) 

Densities:
  Coarse grid: 24*12*12 grid
  Fine grid: 48*24*24 grid
  Total Charge: 0.000000 

Density mixing:
  Method: sum
  Backend: pulay
  Linear mixing parameter: 0.05
  Mixing with 5 old densities
  Damping of long wave oscillations: 50 

Hamiltonian:
  XC and Coulomb potentials evaluated on a 48*24*24 grid
  Using the PBE Exchange-Correlation functional
 

Memory estimate:
  Process memory now: 73.61 MiB
  Calculator: 78.93 MiB
    Density: 1.83 MiB
      Arrays: 0.92 MiB
      Localized functions: 0.65 MiB
      Mixer: 0.26 MiB
    Hamiltonian: 0.70 MiB
      Arrays: 0.69 MiB
      XC: 0.00 MiB
      Poisson: 0.00 MiB
      vbar: 0.02 MiB
    Wavefunctions: 76.39 MiB
      Arrays psit_nG: 56.16 MiB
      Eigensolver: 0.30 MiB
      Projections: 2.85 MiB
      Projectors: 15.82 MiB
      PW-descriptor: 1.26 MiB

Total number of cores used: 1

Number of atoms: 2
Number of atomic orbitals: 18
Number of bands in calculation: 18
Bands to converge: occupied states only
Number of valence electrons: 19

... initialized

Initializing position-dependent things.

Density initialized from atomic densities
Creating initial wave functions:
  18 bands from LCAO basis set

                     
                     
                     
                     
        Fe           
                     
           Cu        
                     
                     
                     
                     

Positions:
   0 Cu     0.000000    0.000000    0.000000    ( 0.0000,  0.0000,  0.0000)
   1 Fe    -1.500000    1.500000    1.500000    ( 0.0000,  0.0000,  2.2000)

Unit cell:
           periodic     x           y           z      points  spacing
  1. axis:    yes   -3.000000    3.000000    3.000000    24     0.1768
  2. axis:    yes    1.500000   -1.500000    1.500000    12     0.1768
  3. axis:    yes    1.500000    1.500000   -1.500000    12     0.1768

  Lengths:   5.196152   2.598076   2.598076
  Angles:  109.471221 109.471221 109.471221

Effective grid spacing dv^(1/3) = 0.1984

                     log10-error:    total        iterations:
           time      wfs    density  energy       fermi  poisson  magmom
iter:   1  11:31:45  +2.12   +inf   -18.391215    3               +0.6237
iter:   2  11:31:54  +0.15   +inf   -18.497204    2               +0.6267
iter:   3  11:32:05  -1.01   +inf   -18.512008    2               +0.6271
iter:   4  11:32:17  +0.80  -0.96   -12.494807    32              +2.0576
iter:   5  11:32:29  -0.50  -1.34   -12.279864    30              +2.4257
iter:   6  11:32:40  -0.25  -1.44   -12.148929    31              +2.5305
iter:   7  11:32:50  -1.51  -1.75   -12.126148    3               +2.5332
iter:   8  11:33:00  -0.26  -1.85   -12.415211    31              +2.6391
iter:   9  11:33:10  -0.72  -1.90   -12.292115    31              +2.7934
iter:  10  11:33:19  -0.95  -1.91   -12.169497    2               +2.7934
iter:  11  11:33:29  -0.85  -2.17   -12.173917    3               +2.7688
iter:  12  11:33:39  -0.88  -2.38   -12.162052    2               +2.7985
iter:  13  11:33:49  -2.31  -2.39   -12.166827    2               +2.8392
iter:  14  11:33:58  -2.55  -2.74   -12.169832    2               +2.8401
iter:  15  11:34:08  -1.86  -2.60   -12.163252    2               +2.8290
iter:  16  11:34:19  -2.95  -3.06   -12.165932    2               +2.8377
iter:  17  11:34:30  -2.76  -3.23   -12.166674    2               +2.8513
iter:  18  11:34:41  -4.24  -3.55   -12.166877    2               +2.8540
iter:  19  11:34:52  -4.48  -3.84   -12.167065    2               +2.8573
iter:  20  11:35:03  -5.27  -3.91   -12.167127    2               +2.8583
iter:  21  11:35:15  -4.86  -3.93   -12.167275    2               +2.8603
iter:  22  11:35:28  -4.75  -4.06   -12.167462    2               +2.8635
iter:  23  11:35:38  -5.39  -4.32   -12.167460    2               +2.8635
iter:  24  11:35:48  -6.43  -4.27   -12.167462    2               +2.8635
iter:  25  11:36:00  -6.39  -4.27   -12.167480    2               +2.8640
iter:  26  11:36:11  -6.55  -4.25   -12.167470    2               +2.8637
iter:  27  11:36:21  -6.34  -4.27   -12.167446    2               +2.8632
iter:  28  11:36:32  -6.48  -4.27   -12.167462    2               +2.8635
iter:  29  11:36:44  -5.71  -4.21   -12.167480    2               +2.8640
iter:  30  11:36:55  -7.43  -4.32   -12.167483    2               +2.8641

Converged after 30 iterations.

Dipole moment: (-0.000000, 0.000000, -0.000000) |e|*Ang

Total magnetic moment: (0.000000, 0.000000, 2.856589)
Local magnetic moments:
   0 Cu ( 0.000000,  0.000000,  0.091713)
   1 Fe ( 0.000000,  0.000000,  2.827796)

Energy contributions relative to reference atoms: (reference = -79640.906441)

Kinetic:        -10.671370
Potential:       +8.064385
External:        +0.000000
XC:              -9.655816
Entropy (-ST):   -0.059077
Local:           +0.124857
--------------------------
Free energy:    -12.197021
Extrapolated:   -12.167483

Spin contamination: 0.126242 electrons
Fermi level: 7.41786

Warning: Showing only first 2 kpts
                      Up                     Down
 Kpt  Band  Eigenvalues  Occupancy  Eigenvalues  Occupancy
  0     7      5.67677    0.00391      7.81035    0.00008
  0     8      6.06893    0.00391      8.22974    0.00000
  0     9      6.56351    0.00391      8.45486    0.00000
  0    10      8.84293    0.00000     10.01790    0.00000

  1     7      5.52695    0.00781      7.24121    0.00667
  1     8      5.82679    0.00781      7.89920    0.00006
  1     9      6.22773    0.00781      8.31344    0.00000
  1    10      9.71057    0.00000     10.76891    0.00000


Writing to Si_gs.gpw (mode='')

Timing:                              incl.     excl.
-----------------------------------------------------------
Hamiltonian:                         0.340     0.000   0.0% |
 Atomic:                             0.291     0.009   0.0% |
  XC Correction:                     0.282     0.282   0.1% |
 Calculate atomic Hamiltonians:      0.003     0.003   0.0% |
 Communicate:                        0.000     0.000   0.0% |
 Initialize Hamiltonian:             0.000     0.000   0.0% |
 Poisson:                            0.000     0.000   0.0% |
 XC 3D grid:                         0.045     0.045   0.0% |
LCAO initialization:                 4.279     0.217   0.1% |
 LCAO eigensolver:                   0.801     0.007   0.0% |
  Calculate projections:             0.011     0.011   0.0% |
  DenseAtomicCorrection:             0.029     0.029   0.0% |
  Distribute overlap matrix:         0.004     0.004   0.0% |
  Orbital Layouts:                   0.046     0.046   0.0% |
  Potential matrix:                  0.423     0.423   0.1% |
  Sum over cells:                    0.281     0.281   0.1% |
 LCAO to grid:                       2.582     2.582   0.8% |
 Set positions (LCAO WFS):           0.679     0.004   0.0% |
  Basic WFS set positions:           0.000     0.000   0.0% |
  Basis functions set positions:     0.000     0.000   0.0% |
  TCI: Calculate S, T, P:            0.675     0.675   0.2% |
PWDescriptor:                        0.015     0.015   0.0% |
SCF-cycle:                         327.272     2.744   0.8% |
 Davidson:                         292.671   105.848  31.7% |------------|
  Subspace diag:                    77.739     0.780   0.2% |
   calc_h_matrix:                   49.696    49.696  14.9% |-----|
   diagonalize:                     15.488    15.488   4.6% |-|
   rotate_psi:                      11.776    11.776   3.5% ||
  calc. matrices:                   65.714    65.714  19.7% |-------|
  diagonalize:                      31.646    31.646   9.5% |---|
  rotate_psi:                       11.725    11.725   3.5% ||
 Density:                           15.022     0.001   0.0% |
  Atomic density matrices:           0.286     0.286   0.1% |
  Mix:                               0.151     0.151   0.0% |
  Multipole moments:                 0.003     0.003   0.0% |
  Pseudo density:                   14.581    14.536   4.4% |-|
   Symmetrize density:               0.045     0.045   0.0% |
 Hamiltonian:                       10.284     0.010   0.0% |
  Atomic:                            8.593     0.308   0.1% |
   XC Correction:                    8.285     8.285   2.5% ||
  Calculate atomic Hamiltonians:     0.104     0.104   0.0% |
  Communicate:                       0.000     0.000   0.0% |
  Poisson:                           0.004     0.004   0.0% |
  XC 3D grid:                        1.571     1.571   0.5% |
 Orthonormalize:                     6.552     0.026   0.0% |
  calc_s_matrix:                     0.146     0.146   0.0% |
  inverse-cholesky:                  5.656     5.656   1.7% ||
  projections:                       0.523     0.523   0.2% |
  rotate_psi_s:                      0.200     0.200   0.1% |
Set symmetry:                        0.015     0.015   0.0% |
Other:                               2.148     2.148   0.6% |
-----------------------------------------------------------
Total:                                       334.068 100.0%

Memory usage: 193.56 MiB
Date: Fri Dec  7 11:36:56 2018
