
  ___ ___ ___ _ _ _  
 |   |   |_  | | | | 
 | | | | | . | | | | 
 |__ |  _|___|_____|  1.3.1b1
 |___|_|             

User:   rasmusat@c43-8.local
Date:   Fri Nov 30 09:20:03 2018
Arch:   x86_64
Pid:    7724
Python: 2.7.12
gpaw:   /home/davidkl/.local/lib/python2.7/site-packages/gpaw
_gpaw:  /home/davidkl/.local/bin/gpaw-python
ase:    /home/davidkl/.local/lib/python2.7/site-packages/ase (version 3.16.2)
numpy:  /global/hds/software/cpu/eb3/Python/2.7.12-intel-2016b/lib/python2.7/site-packages/numpy-1.11.1-py2.7-linux-x86_64.egg/numpy (version 1.11.1)
scipy:  /global/hds/software/cpu/eb3/Python/2.7.12-intel-2016b/lib/python2.7/site-packages/scipy (version 0.17.1)
units:  Angstrom and eV
cores:  32

Input parameters:
  kpts: [10 10 10]
  mode: {ecut: 500.0,
         name: pw}
  nbands: -25
  occupations: {name: fermi-dirac,
                width: 0.1}
  spinpol: True
  xc: PBE

System changes: positions, numbers, cell, pbc, initial_charges, initial_magmoms 

Initialize ...

Fe-setup:
  name: Iron
  id: 37abbd8d6c3c35915a9b583b742da910
  Z: 26
  valence: 8
  core: 18
  charge: 0.0
  file: /home/davidkl/gpaw-setups-0.9.20000/Fe.PBE.gz
  cutoffs: 1.06(comp), 2.06(filt), 2.67(core), lmax=2
  valence states:
                energy  radius
    4s(2.00)    -5.291   1.164
    4p(0.00)    -1.326   1.058
    3d(6.00)    -7.505   1.058
    *s          21.920   1.164
    *p          25.885   1.058
    *d          19.706   1.058

  Using partial waves for Fe as LCAO basis

Cu-setup:
  name: Copper
  id: f1c4d45d90492f1bbfdcb091e8418fdf
  Z: 29
  valence: 11
  core: 18
  charge: 0.0
  file: /home/davidkl/gpaw-setups-0.9.20000/Cu.PBE.gz
  cutoffs: 1.06(comp), 2.06(filt), 2.43(core), lmax=2
  valence states:
                energy  radius
    4s(1.00)    -4.609   1.164
    4p(0.00)    -0.698   1.164
    3d(10.00)    -5.039   1.058
    *s          22.603   1.164
    *p          26.513   1.164
    *d          22.172   1.058

  Using partial waves for Cu as LCAO basis

Reference energy: -339367.620247

Spin-polarized calculation.
Magnetic moment:  4.400000

Occupation numbers:
  Fermi-Dirac: width=0.1000 eV

Convergence criteria:
  Maximum total energy change: 0.0005 eV / electron
  Maximum integral of absolute density change: 0.0001 electrons
  Maximum integral of absolute eigenstate change: 4e-08 eV^2
  Maximum number of iterations: 333

Symmetries present (total): 2

  ( 1  0  0)  ( 0  1  0)
  ( 0  1  0)  ( 1  0  0)
  ( 0  0  1)  ( 0  0  1)

1000 k-points: 10 x 10 x 10 Monkhorst-Pack grid
275 k-points in the irreducible part of the Brillouin zone
       k-points in crystal coordinates                weights
   0:     0.05000000   -0.05000000    0.05000000          4/1000
   1:     0.05000000   -0.05000000    0.15000000          4/1000
   2:     0.05000000   -0.05000000    0.25000000          4/1000
   3:     0.05000000   -0.05000000    0.35000000          4/1000
   4:     0.05000000   -0.05000000    0.45000000          4/1000
   5:     0.05000000    0.05000000   -0.45000000          2/1000
   6:     0.05000000    0.05000000   -0.35000000          2/1000
   7:     0.05000000    0.05000000   -0.25000000          2/1000
   8:     0.05000000    0.05000000   -0.15000000          2/1000
   9:     0.05000000    0.05000000   -0.05000000          2/1000
          ...
 274:     0.45000000    0.45000000    0.45000000          2/1000

Wave functions: Plane wave expansion
  Cutoff energy: 500.000 eV
  Number of coefficients (min, max): 1769, 1802
  Pulay-stress correction: 0.000000 eV/Ang^3 (de/decut=0.000000)
  Using FFTW library
  Eigensolver: None  MatrixOperator buffer_size: default value or 
                              see value of nblock in input file
Diagonalizer layout: Serial LAPACKOrthonormalizer layout: Serial LAPACK 

Davidson(niter=1, smin=None, normalize=True) 

Densities:
  Coarse grid: 20*20*20 grid
  Fine grid: 40*40*40 grid
  Total Charge: 0.000000 

Density mixing:
  Method: sum
  Backend: pulay
  Linear mixing parameter: 0.05
  Mixing with 5 old densities
  Damping of long wave oscillations: 50 

Hamiltonian:
  XC and Coulomb potentials evaluated on a 40*40*40 grid
  Using the PBE Exchange-Correlation functional
 

Memory estimate:
  Process memory now: 59.16 MiB
  Calculator: 50.39 MiB
    Density: 4.25 MiB
      Arrays: 2.14 MiB
      Localized functions: 1.51 MiB
      Mixer: 0.61 MiB
    Hamiltonian: 1.62 MiB
      Arrays: 1.59 MiB
      XC: 0.00 MiB
      Poisson: 0.00 MiB
      vbar: 0.04 MiB
    Wavefunctions: 44.51 MiB
      Arrays psit_nG: 31.79 MiB
      Eigensolver: 2.71 MiB
      Projections: 2.54 MiB
      Projectors: 4.87 MiB
      Overlap op: 1.94 MiB
      PW-descriptor: 0.65 MiB

Total number of cores used: 32
Parallelization over k-points and spin: 32

Number of atoms: 8
Number of atomic orbitals: 72
Number of bands in calculation: 68
Bands to converge: occupied states only
Number of valence electrons: 82

... initialized

Initializing position-dependent things.

Density initialized from atomic densities
Creating initial wave functions:
  68 bands from LCAO basis set

                            
                            
                            
                            
                            
           Cu               
         Cu    Cu           
             Cu             
             Cu             
           Fe    Cu         
               Fe           
                            
                            
                            
                            
                            

Positions:
   0 Fe     0.000003    0.000003    0.000003
   1 Fe     1.300003    1.300003   -1.299997
   2 Cu     1.300003   -1.299997    1.300003
   3 Cu     2.600003    0.000003    0.000003
   4 Cu    -1.299997    1.300003    1.300003
   5 Cu     0.000003    2.600003    0.000003
   6 Cu     0.000003    0.000003    2.600003
   7 Cu     1.300003    1.300003    1.300003

Unit cell:
           periodic     x           y           z      points  spacing
  1. axis:    yes   -2.600000    2.600000    2.600000    20     0.1838
  2. axis:    yes    2.600000   -2.600000    2.600000    20     0.1838
  3. axis:    yes    2.600000    2.600000   -2.600000    20     0.1838

  Lengths:   4.503332   4.503332   4.503332
  Angles:  109.471221 109.471221 109.471221

Effective grid spacing dv^(1/3) = 0.2064

                     log10-error:    total        iterations:
           time      wfs    density  energy       fermi  poisson  magmom
iter:   1  09:20:19  +2.00   +inf   -54.284071    3               +0.8402
iter:   2  09:20:24  +0.20   +inf   -54.869035    3               +0.8429
iter:   3  09:20:29  -0.78   +inf   -54.955291    2               +0.8435
iter:   4  09:20:36  +0.23  -1.14   -36.795864    34              +3.1852
iter:   5  09:20:42  -0.26  -1.32   -34.196177    3               +3.4183
iter:   6  09:20:48  +0.45  -1.44   -33.136777    35              +3.4312
iter:   7  09:20:54  -0.53  -1.93   -32.531380    3               +3.5583
iter:   8  09:21:00  -0.23  -2.02   -32.895350    3               +3.4738
iter:   9  09:21:06  -1.15  -1.91   -32.364467    2               +3.5036
iter:  10  09:21:12  -2.10  -2.49   -32.314289    3               +3.5293
iter:  11  09:21:18  -2.90  -2.49   -32.315564    2               +3.5401
iter:  12  09:21:24  -3.25  -2.48   -32.310905    3               +3.5427
iter:  13  09:21:30  -1.92  -2.46   -32.309969    3               +3.5497
iter:  14  09:21:36  -2.98  -2.71   -32.310960    2               +3.5515
iter:  15  09:21:42  -2.69  -2.80   -32.312004    3               +3.5542
iter:  16  09:21:48  -2.98  -3.13   -32.310220    3               +3.5562
iter:  17  09:21:54  -4.11  -3.57   -32.310015    2               +3.5593
iter:  18  09:22:00  -4.34  -3.62   -32.309978    2               +3.5585
iter:  19  09:22:06  -5.59  -3.68   -32.309982    2               +3.5580
iter:  20  09:22:12  -5.38  -3.67   -32.309902    2               +3.5576
iter:  21  09:22:18  -5.04  -3.72   -32.309865    2               +3.5561
iter:  22  09:22:24  -5.01  -3.85   -32.309961    2               +3.5536
iter:  23  09:22:30  -5.61  -4.10   -32.309980    2               +3.5522
iter:  24  09:22:36  -5.59  -4.12   -32.310003    2               +3.5501
iter:  25  09:22:42  -5.95  -4.32   -32.310021    2               +3.5489
iter:  26  09:22:48  -6.16  -4.30   -32.310002    2               +3.5485
iter:  27  09:22:54  -6.24  -4.35   -32.309987    2               +3.5481
iter:  28  09:23:00  -5.47  -4.48   -32.310001    2               +3.5457
iter:  29  09:23:06  -6.40  -4.78   -32.310009    2               +3.5454
iter:  30  09:23:12  -7.61  -4.84   -32.310011    2               +3.5452

Converged after 30 iterations.

Dipole moment: (-0.000188, -0.000188, -0.000197) |e|*Ang

Total magnetic moment: 3.545244
Local magnetic moments:
   0 Fe 1.698760
   1 Fe 1.698760
   2 Cu 0.037076
   3 Cu 0.037076
   4 Cu 0.037076
   5 Cu 0.037076
   6 Cu 0.037190
   7 Cu 0.037190

Energy contributions relative to reference atoms: (reference = -339367.620247)

Kinetic:        +82.037394
Potential:      -65.427367
External:        +0.000000
XC:             -49.724849
Entropy (-ST):   -0.186730
Local:           +0.898176
--------------------------
Free energy:    -32.403377
Extrapolated:   -32.310011

Spin contamination: 0.224395 electrons
Fermi level: 13.00224

Warning: Showing only first 2 kpts
                      Up                     Down
 Kpt  Band  Eigenvalues  Occupancy  Eigenvalues  Occupancy
  0    39     12.28633    0.00400     12.99032    0.00212
  0    40     12.36881    0.00399     13.33361    0.00014
  0    41     12.55345    0.00396     13.53558    0.00002
  0    42     12.59312    0.00393     13.87413    0.00000

  1    39     12.20987    0.00400     13.32707    0.00015
  1    40     12.40842    0.00399     13.44444    0.00005
  1    41     12.78729    0.00358     13.78803    0.00000
  1    42     12.95740    0.00244     13.87105    0.00000



Forces in eV/Ang:
  0 Fe   -0.00000   -0.00000   -0.00000
  1 Fe   -0.00000   -0.00000   -0.00000
  2 Cu   -0.00000   -0.00000   -0.00000
  3 Cu   -0.00000   -0.00000   -0.00000
  4 Cu   -0.00000   -0.00000   -0.00000
  5 Cu   -0.00000   -0.00000   -0.00000
  6 Cu   -0.00000   -0.00000   -0.00000
  7 Cu   -0.00000   -0.00000   -0.00000

Stress tensor:
    -0.610921     0.022363    -0.022655
     0.022363    -0.610921    -0.022655
    -0.022655    -0.022655    -0.610893
Writing to fecu_id11_relaxed.gpw (mode='')

System changes: positions, cell 

Initialize ...

Fe-setup:
  name: Iron
  id: 37abbd8d6c3c35915a9b583b742da910
  Z: 26
  valence: 8
  core: 18
  charge: 0.0
  file: /home/davidkl/gpaw-setups-0.9.20000/Fe.PBE.gz
  cutoffs: 1.06(comp), 2.06(filt), 2.67(core), lmax=2
  valence states:
                energy  radius
    4s(2.00)    -5.291   1.164
    4p(0.00)    -1.326   1.058
    3d(6.00)    -7.505   1.058
    *s          21.920   1.164
    *p          25.885   1.058
    *d          19.706   1.058

  Using partial waves for Fe as LCAO basis

Cu-setup:
  name: Copper
  id: f1c4d45d90492f1bbfdcb091e8418fdf
  Z: 29
  valence: 11
  core: 18
  charge: 0.0
  file: /home/davidkl/gpaw-setups-0.9.20000/Cu.PBE.gz
  cutoffs: 1.06(comp), 2.06(filt), 2.43(core), lmax=2
  valence states:
                energy  radius
    4s(1.00)    -4.609   1.164
    4p(0.00)    -0.698   1.164
    3d(10.00)    -5.039   1.058
    *s          22.603   1.164
    *p          26.513   1.164
    *d          22.172   1.058

  Using partial waves for Cu as LCAO basis

Reference energy: -339367.620247

Spin-polarized calculation.
Magnetic moment:  4.400000

Occupation numbers:
  Fermi-Dirac: width=0.1000 eV

Convergence criteria:
  Maximum total energy change: 0.0005 eV / electron
  Maximum integral of absolute density change: 0.0001 electrons
  Maximum integral of absolute eigenstate change: 4e-08 eV^2
  Maximum number of iterations: 333

Symmetries present (total): 2

  ( 1  0  0)  ( 0  1  0)
  ( 0  1  0)  ( 1  0  0)
  ( 0  0  1)  ( 0  0  1)

1000 k-points: 10 x 10 x 10 Monkhorst-Pack grid
275 k-points in the irreducible part of the Brillouin zone
       k-points in crystal coordinates                weights
   0:     0.05000000   -0.05000000    0.05000000          4/1000
   1:     0.05000000   -0.05000000    0.15000000          4/1000
   2:     0.05000000   -0.05000000    0.25000000          4/1000
   3:     0.05000000   -0.05000000    0.35000000          4/1000
   4:     0.05000000   -0.05000000    0.45000000          4/1000
   5:     0.05000000    0.05000000   -0.45000000          2/1000
   6:     0.05000000    0.05000000   -0.35000000          2/1000
   7:     0.05000000    0.05000000   -0.25000000          2/1000
   8:     0.05000000    0.05000000   -0.15000000          2/1000
   9:     0.05000000    0.05000000   -0.05000000          2/1000
          ...
 274:     0.45000000    0.45000000    0.45000000          2/1000

Wave functions: Plane wave expansion
  Cutoff energy: 500.000 eV
  Number of coefficients (min, max): 1794, 1844
  Pulay-stress correction: 0.000000 eV/Ang^3 (de/decut=0.000000)
  Using FFTW library
  Eigensolver: None  MatrixOperator buffer_size: default value or 
                              see value of nblock in input file
Diagonalizer layout: Serial LAPACKOrthonormalizer layout: Serial LAPACK 

Davidson(niter=1, smin=None, normalize=True) 

Densities:
  Coarse grid: 20*20*20 grid
  Fine grid: 40*40*40 grid
  Total Charge: 0.000000 

Density mixing:
  Method: sum
  Backend: pulay
  Linear mixing parameter: 0.05
  Mixing with 5 old densities
  Damping of long wave oscillations: 50 

Hamiltonian:
  XC and Coulomb potentials evaluated on a 40*40*40 grid
  Using the PBE Exchange-Correlation functional
 

Memory estimate:
  Process memory now: 237.55 MiB
  Calculator: 51.29 MiB
    Density: 4.25 MiB
      Arrays: 2.14 MiB
      Localized functions: 1.51 MiB
      Mixer: 0.61 MiB
    Hamiltonian: 1.62 MiB
      Arrays: 1.59 MiB
      XC: 0.00 MiB
      Poisson: 0.00 MiB
      vbar: 0.04 MiB
    Wavefunctions: 45.42 MiB
      Arrays psit_nG: 32.53 MiB
      Eigensolver: 2.76 MiB
      Projections: 2.54 MiB
      Projectors: 4.95 MiB
      Overlap op: 1.98 MiB
      PW-descriptor: 0.66 MiB

Total number of cores used: 32
Parallelization over k-points and spin: 32

Number of atoms: 8
Number of atomic orbitals: 72
Number of bands in calculation: 68
Bands to converge: occupied states only
Number of valence electrons: 82

... initialized

Initializing position-dependent things.

Density initialized from atomic densities
Creating initial wave functions:
  68 bands from LCAO basis set

                            
                            
                            
                            
                            
           Cu               
         Cu    Cu           
             Cu             
             Cu             
           Fe    Cu         
               Fe           
                            
                            
                            
                            
                            

Positions:
   0 Fe     0.000003    0.000003    0.000003
   1 Fe     1.306015    1.306015   -1.306007
   2 Cu     1.306972   -1.306485    1.306494
   3 Cu     2.612985   -0.000473    0.000484
   4 Cu    -1.306485    1.306972    1.306494
   5 Cu    -0.000473    2.612985    0.000484
   6 Cu     0.000484    0.000484    2.612984
   7 Cu     1.306497    1.306497    1.306975

Unit cell:
           periodic     x           y           z      points  spacing
  1. axis:    yes   -2.612976    2.613939    2.612982    20     0.1848
  2. axis:    yes    2.613939   -2.612976    2.612982    20     0.1848
  3. axis:    yes    2.612026    2.612026   -2.612019    20     0.1847

  Lengths:   4.526367   4.526367   4.524157
  Angles:  109.461263 109.461263 109.481054

Effective grid spacing dv^(1/3) = 0.2074

                     log10-error:    total        iterations:
           time      wfs    density  energy       fermi  poisson  magmom
iter:   1  09:23:44  +1.99   +inf   -54.876386    36              +0.8318
iter:   2  09:23:50  +0.21   +inf   -55.464552    3               +0.8346
iter:   3  09:23:55  -0.78   +inf   -55.550838    2               +0.8352
iter:   4  09:24:01  +0.23  -1.14   -37.327539    32              +3.2335
iter:   5  09:24:07  -0.28  -1.31   -34.825794    2               +3.4916
iter:   6  09:24:14  +0.44  -1.44   -33.702161    33              +3.5432
iter:   7  09:24:20  -0.54  -1.93   -33.153962    3               +3.6417
iter:   8  09:24:26  -0.25  -2.01   -33.518371    3               +3.5408
iter:   9  09:24:32  -1.19  -1.93   -32.998253    3               +3.5915
iter:  10  09:24:38  -2.11  -2.49   -32.950139    3               +3.6233
iter:  11  09:24:44  -2.94  -2.49   -32.951247    2               +3.6349
iter:  12  09:24:50  -2.79  -2.48   -32.945806    3               +3.6450
iter:  13  09:24:56  -2.78  -2.51   -32.953073    3               +3.6542
iter:  14  09:25:02  -2.89  -2.62   -32.948165    3               +3.6571
iter:  15  09:25:09  -3.51  -2.84   -32.946824    3               +3.6560
iter:  16  09:25:15  -4.10  -2.91   -32.946496    3               +3.6532
iter:  17  09:25:21  -3.98  -3.00   -32.947221    2               +3.6516
iter:  18  09:25:27  -3.49  -3.11   -32.946169    2               +3.6523
iter:  19  09:25:33  -4.75  -3.39   -32.946027    2               +3.6535
iter:  20  09:25:39  -3.68  -3.44   -32.945682    2               +3.6569
iter:  21  09:25:45  -4.84  -3.79   -32.945690    2               +3.6596
iter:  22  09:25:51  -5.06  -3.99   -32.945756    2               +3.6617
iter:  23  09:25:57  -6.04  -4.36   -32.945761    2               +3.6626
iter:  24  09:26:03  -6.92  -4.45   -32.945764    2               +3.6632
iter:  25  09:26:09  -7.27  -4.46   -32.945771    2               +3.6636
iter:  26  09:26:15  -6.26  -4.48   -32.945796    2               +3.6649
iter:  27  09:26:21  -7.18  -4.52   -32.945795    2               +3.6649
iter:  28  09:26:28  -7.76  -4.52   -32.945792    2               +3.6648

Converged after 28 iterations.

Dipole moment: (-0.000190, -0.000190, -0.000199) |e|*Ang

Total magnetic moment: 3.664811
Local magnetic moments:
   0 Fe 1.749777
   1 Fe 1.749777
   2 Cu 0.038502
   3 Cu 0.038502
   4 Cu 0.038502
   5 Cu 0.038502
   6 Cu 0.038624
   7 Cu 0.038624

Energy contributions relative to reference atoms: (reference = -339367.620247)

Kinetic:        +70.784460
Potential:      -56.430073
External:        +0.000000
XC:             -48.123672
Entropy (-ST):   -0.187658
Local:           +0.917322
--------------------------
Free energy:    -33.039621
Extrapolated:   -32.945792

Spin contamination: 0.230956 electrons
Fermi level: 12.74323

Warning: Showing only first 2 kpts
                      Up                     Down
 Kpt  Band  Eigenvalues  Occupancy  Eigenvalues  Occupancy
  0    39     12.00141    0.00400     12.73705    0.00206
  0    40     12.09404    0.00399     13.07339    0.00014
  0    41     12.25576    0.00397     13.27539    0.00002
  0    42     12.32371    0.00394     13.62010    0.00000

  1    39     11.92636    0.00400     13.06838    0.00015
  1    40     12.11451    0.00399     13.18842    0.00005
  1    41     12.51066    0.00364     13.53777    0.00000
  1    42     12.67672    0.00264     13.61108    0.00000



Forces in eV/Ang:
  0 Fe   -0.00000   -0.00000   -0.00000
  1 Fe   -0.00000   -0.00000   -0.00000
  2 Cu   -0.00000   -0.00000   -0.00000
  3 Cu   -0.00000   -0.00000   -0.00000
  4 Cu   -0.00000   -0.00000   -0.00000
  5 Cu   -0.00000   -0.00000   -0.00000
  6 Cu   -0.00000   -0.00000   -0.00000
  7 Cu   -0.00000   -0.00000   -0.00000

Stress tensor:
    -0.560987     0.020518    -0.020789
     0.020518    -0.560987    -0.020789
    -0.020789    -0.020789    -0.560960
Writing to fecu_id11_relaxed.gpw (mode='')

System changes: positions, cell 

Initialize ...

Fe-setup:
  name: Iron
  id: 37abbd8d6c3c35915a9b583b742da910
  Z: 26
  valence: 8
  core: 18
  charge: 0.0
  file: /home/davidkl/gpaw-setups-0.9.20000/Fe.PBE.gz
  cutoffs: 1.06(comp), 2.06(filt), 2.67(core), lmax=2
  valence states:
                energy  radius
    4s(2.00)    -5.291   1.164
    4p(0.00)    -1.326   1.058
    3d(6.00)    -7.505   1.058
    *s          21.920   1.164
    *p          25.885   1.058
    *d          19.706   1.058

  Using partial waves for Fe as LCAO basis

Cu-setup:
  name: Copper
  id: f1c4d45d90492f1bbfdcb091e8418fdf
  Z: 29
  valence: 11
  core: 18
  charge: 0.0
  file: /home/davidkl/gpaw-setups-0.9.20000/Cu.PBE.gz
  cutoffs: 1.06(comp), 2.06(filt), 2.43(core), lmax=2
  valence states:
                energy  radius
    4s(1.00)    -4.609   1.164
    4p(0.00)    -0.698   1.164
    3d(10.00)    -5.039   1.058
    *s          22.603   1.164
    *p          26.513   1.164
    *d          22.172   1.058

  Using partial waves for Cu as LCAO basis

Reference energy: -339367.620247

Spin-polarized calculation.
Magnetic moment:  4.400000

Occupation numbers:
  Fermi-Dirac: width=0.1000 eV

Convergence criteria:
  Maximum total energy change: 0.0005 eV / electron
  Maximum integral of absolute density change: 0.0001 electrons
  Maximum integral of absolute eigenstate change: 4e-08 eV^2
  Maximum number of iterations: 333

Symmetries present (total): 2

  ( 1  0  0)  ( 0  1  0)
  ( 0  1  0)  ( 1  0  0)
  ( 0  0  1)  ( 0  0  1)

1000 k-points: 10 x 10 x 10 Monkhorst-Pack grid
275 k-points in the irreducible part of the Brillouin zone
       k-points in crystal coordinates                weights
   0:     0.05000000   -0.05000000    0.05000000          4/1000
   1:     0.05000000   -0.05000000    0.15000000          4/1000
   2:     0.05000000   -0.05000000    0.25000000          4/1000
   3:     0.05000000   -0.05000000    0.35000000          4/1000
   4:     0.05000000   -0.05000000    0.45000000          4/1000
   5:     0.05000000    0.05000000   -0.45000000          2/1000
   6:     0.05000000    0.05000000   -0.35000000          2/1000
   7:     0.05000000    0.05000000   -0.25000000          2/1000
   8:     0.05000000    0.05000000   -0.15000000          2/1000
   9:     0.05000000    0.05000000   -0.05000000          2/1000
          ...
 274:     0.45000000    0.45000000    0.45000000          2/1000

Wave functions: Plane wave expansion
  Cutoff energy: 500.000 eV
  Number of coefficients (min, max): 1824, 1878
  Pulay-stress correction: 0.000000 eV/Ang^3 (de/decut=0.000000)
  Using FFTW library
  Eigensolver: None  MatrixOperator buffer_size: default value or 
                              see value of nblock in input file
Diagonalizer layout: Serial LAPACKOrthonormalizer layout: Serial LAPACK 

Davidson(niter=1, smin=None, normalize=True) 

Densities:
  Coarse grid: 20*20*20 grid
  Fine grid: 40*40*40 grid
  Total Charge: 0.000000 

Density mixing:
  Method: sum
  Backend: pulay
  Linear mixing parameter: 0.05
  Mixing with 5 old densities
  Damping of long wave oscillations: 50 

Hamiltonian:
  XC and Coulomb potentials evaluated on a 40*40*40 grid
  Using the PBE Exchange-Correlation functional
 

Memory estimate:
  Process memory now: 242.74 MiB
  Calculator: 52.05 MiB
    Density: 4.25 MiB
      Arrays: 2.14 MiB
      Localized functions: 1.51 MiB
      Mixer: 0.61 MiB
    Hamiltonian: 1.62 MiB
      Arrays: 1.59 MiB
      XC: 0.00 MiB
      Poisson: 0.00 MiB
      vbar: 0.04 MiB
    Wavefunctions: 46.17 MiB
      Arrays psit_nG: 33.13 MiB
      Eigensolver: 2.80 MiB
      Projections: 2.54 MiB
      Projectors: 5.02 MiB
      Overlap op: 2.02 MiB
      PW-descriptor: 0.66 MiB

Total number of cores used: 32
Parallelization over k-points and spin: 32

Number of atoms: 8
Number of atomic orbitals: 72
Number of bands in calculation: 68
Bands to converge: occupied states only
Number of valence electrons: 82

... initialized

Initializing position-dependent things.

Density initialized from atomic densities
Creating initial wave functions:
  68 bands from LCAO basis set

                             
                             
                             
                             
                             
           Cu                
         Cu     Cu           
             Cu              
              Cu             
           Fe     Cu         
                Fe           
                             
                             
                             
                             
                             

Positions:
   0 Fe     0.000003    0.000003    0.000003
   1 Fe     1.312034    1.312034   -1.312022
   2 Cu     1.313937   -1.312974    1.312985
   3 Cu     2.625968   -0.000943    0.000960
   4 Cu    -1.312974    1.313937    1.312985
   5 Cu    -0.000943    2.625968    0.000960
   6 Cu     0.000960    0.000960    2.625967
   7 Cu     1.312991    1.312991    1.313942

Unit cell:
           periodic     x           y           z      points  spacing
  1. axis:    yes   -2.625953    2.627868    2.625964    20     0.1858
  2. axis:    yes    2.627868   -2.625953    2.625964    20     0.1858
  3. axis:    yes    2.624062    2.624062   -2.624048    20     0.1856

  Lengths:   4.549396   4.549396   4.545001
  Angles:  109.451509 109.451509 109.490680

Effective grid spacing dv^(1/3) = 0.2084

                     log10-error:    total        iterations:
           time      wfs    density  energy       fermi  poisson  magmom
iter:   1  09:26:59  +2.00   +inf   -55.421306    32              +0.8232
iter:   2  09:27:05  +0.21   +inf   -56.010057    3               +0.8261
iter:   3  09:27:10  -0.79   +inf   -56.096068    2               +0.8267
iter:   4  09:27:17  +0.24  -1.13   -37.813010    33              +3.2819
iter:   5  09:27:23  -0.31  -1.31   -35.408206    3               +3.5640
iter:   6  09:27:29  +0.44  -1.44   -34.225933    32              +3.6491
iter:   7  09:27:35  -0.55  -1.94   -33.730846    3               +3.7224
iter:   8  09:27:41  -0.28  -2.00   -34.082383    3               +3.6097
iter:   9  09:27:47  -1.26  -1.95   -33.586812    3               +3.6782
iter:  10  09:27:53  -2.12  -2.49   -33.540308    3               +3.7151
iter:  11  09:27:59  -2.99  -2.49   -33.540582    2               +3.7267
iter:  12  09:28:06  -2.30  -2.46   -33.538766    3               +3.7579
iter:  13  09:28:12  -3.14  -2.70   -33.539116    2               +3.7721
iter:  14  09:28:18  -3.51  -2.89   -33.536912    3               +3.7734
iter:  15  09:28:24  -3.94  -3.00   -33.537044    2               +3.7720
iter:  16  09:28:30  -4.09  -3.02   -33.536559    3               +3.7702
iter:  17  09:28:36  -4.53  -3.12   -33.536193    2               +3.7715
iter:  18  09:28:42  -4.42  -3.28   -33.536254    2               +3.7740
iter:  19  09:28:48  -3.55  -3.43   -33.535957    2               +3.7801
iter:  20  09:28:55  -5.24  -3.94   -33.536015    2               +3.7825
iter:  21  09:29:01  -5.67  -3.99   -33.536076    2               +3.7854
iter:  22  09:29:07  -5.39  -4.13   -33.536158    2               +3.7899
iter:  23  09:29:13  -6.29  -4.35   -33.536187    2               +3.7912
iter:  24  09:29:19  -6.14  -4.41   -33.536217    2               +3.7918
iter:  25  09:29:25  -6.36  -4.55   -33.536267    1               +3.7939
iter:  26  09:29:31  -6.58  -4.74   -33.536286    2               +3.7952
iter:  27  09:29:37  -7.41  -4.74   -33.536287    1               +3.7952

Converged after 27 iterations.

Dipole moment: (-0.000192, -0.000192, -0.000201) |e|*Ang

Total magnetic moment: 3.795190
Local magnetic moments:
   0 Fe 1.812445
   1 Fe 1.812445
   2 Cu 0.040090
   3 Cu 0.040090
   4 Cu 0.040090
   5 Cu 0.040090
   6 Cu 0.040223
   7 Cu 0.040223

Energy contributions relative to reference atoms: (reference = -339367.620247)

Kinetic:        +60.604970
Potential:      -48.316210
External:        +0.000000
XC:             -46.625260
Entropy (-ST):   -0.188343
Local:           +0.894384
--------------------------
Free energy:    -33.630458
Extrapolated:   -33.536287

Spin contamination: 0.238295 electrons
Fermi level: 12.49134

Warning: Showing only first 2 kpts
                      Up                     Down
 Kpt  Band  Eigenvalues  Occupancy  Eigenvalues  Occupancy
  0    39     11.71985    0.00400     12.49059    0.00201
  0    40     11.82427    0.00399     12.82111    0.00014
  0    41     11.95938    0.00398     13.02290    0.00002
  0    42     12.05326    0.00395     13.37537    0.00000

  1    39     11.64587    0.00400     12.81741    0.00015
  1    40     11.82169    0.00400     12.94002    0.00004
  1    41     12.23740    0.00371     13.29661    0.00000
  1    42     12.40008    0.00285     13.35910    0.00000



Forces in eV/Ang:
  0 Fe   -0.00000   -0.00000   -0.00000
  1 Fe   -0.00000   -0.00000   -0.00000
  2 Cu   -0.00000   -0.00000   -0.00000
  3 Cu   -0.00000   -0.00000   -0.00000
  4 Cu   -0.00000   -0.00000   -0.00000
  5 Cu   -0.00000   -0.00000   -0.00000
  6 Cu   -0.00000   -0.00000   -0.00000
  7 Cu   -0.00000   -0.00000   -0.00000

Stress tensor:
    -0.514115     0.018793    -0.019043
     0.018793    -0.514115    -0.019043
    -0.019043    -0.019043    -0.514086
Writing to fecu_id11_relaxed.gpw (mode='')

System changes: positions, cell 

Initialize ...

Fe-setup:
  name: Iron
  id: 37abbd8d6c3c35915a9b583b742da910
  Z: 26
  valence: 8
  core: 18
  charge: 0.0
  file: /home/davidkl/gpaw-setups-0.9.20000/Fe.PBE.gz
  cutoffs: 1.06(comp), 2.06(filt), 2.67(core), lmax=2
  valence states:
                energy  radius
    4s(2.00)    -5.291   1.164
    4p(0.00)    -1.326   1.058
    3d(6.00)    -7.505   1.058
    *s          21.920   1.164
    *p          25.885   1.058
    *d          19.706   1.058

  Using partial waves for Fe as LCAO basis

Cu-setup:
  name: Copper
  id: f1c4d45d90492f1bbfdcb091e8418fdf
  Z: 29
  valence: 11
  core: 18
  charge: 0.0
  file: /home/davidkl/gpaw-setups-0.9.20000/Cu.PBE.gz
  cutoffs: 1.06(comp), 2.06(filt), 2.43(core), lmax=2
  valence states:
                energy  radius
    4s(1.00)    -4.609   1.164
    4p(0.00)    -0.698   1.164
    3d(10.00)    -5.039   1.058
    *s          22.603   1.164
    *p          26.513   1.164
    *d          22.172   1.058

  Using partial waves for Cu as LCAO basis

Reference energy: -339367.620247

Spin-polarized calculation.
Magnetic moment:  4.400000

Occupation numbers:
  Fermi-Dirac: width=0.1000 eV

Convergence criteria:
  Maximum total energy change: 0.0005 eV / electron
  Maximum integral of absolute density change: 0.0001 electrons
  Maximum integral of absolute eigenstate change: 4e-08 eV^2
  Maximum number of iterations: 333

Symmetries present (total): 2

  ( 1  0  0)  ( 0  1  0)
  ( 0  1  0)  ( 1  0  0)
  ( 0  0  1)  ( 0  0  1)

1000 k-points: 10 x 10 x 10 Monkhorst-Pack grid
275 k-points in the irreducible part of the Brillouin zone
       k-points in crystal coordinates                weights
   0:     0.05000000   -0.05000000    0.05000000          4/1000
   1:     0.05000000   -0.05000000    0.15000000          4/1000
   2:     0.05000000   -0.05000000    0.25000000          4/1000
   3:     0.05000000   -0.05000000    0.35000000          4/1000
   4:     0.05000000   -0.05000000    0.45000000          4/1000
   5:     0.05000000    0.05000000   -0.45000000          2/1000
   6:     0.05000000    0.05000000   -0.35000000          2/1000
   7:     0.05000000    0.05000000   -0.25000000          2/1000
   8:     0.05000000    0.05000000   -0.15000000          2/1000
   9:     0.05000000    0.05000000   -0.05000000          2/1000
          ...
 274:     0.45000000    0.45000000    0.45000000          2/1000

Wave functions: Plane wave expansion
  Cutoff energy: 500.000 eV
  Number of coefficients (min, max): 1824, 1890
  Pulay-stress correction: 0.000000 eV/Ang^3 (de/decut=0.000000)
  Using FFTW library
  Eigensolver: None  MatrixOperator buffer_size: default value or 
                              see value of nblock in input file
Diagonalizer layout: Serial LAPACKOrthonormalizer layout: Serial LAPACK 

Davidson(niter=1, smin=None, normalize=True) 

Densities:
  Coarse grid: 20*20*20 grid
  Fine grid: 40*40*40 grid
  Total Charge: 0.000000 

Density mixing:
  Method: sum
  Backend: pulay
  Linear mixing parameter: 0.05
  Mixing with 5 old densities
  Damping of long wave oscillations: 50 

Hamiltonian:
  XC and Coulomb potentials evaluated on a 40*40*40 grid
  Using the PBE Exchange-Correlation functional
 

Memory estimate:
  Process memory now: 247.09 MiB
  Calculator: 52.36 MiB
    Density: 4.25 MiB
      Arrays: 2.14 MiB
      Localized functions: 1.51 MiB
      Mixer: 0.61 MiB
    Hamiltonian: 1.62 MiB
      Arrays: 1.59 MiB
      XC: 0.00 MiB
      Poisson: 0.00 MiB
      vbar: 0.04 MiB
    Wavefunctions: 46.49 MiB
      Arrays psit_nG: 33.34 MiB
      Eigensolver: 2.81 MiB
      Projections: 2.54 MiB
      Projectors: 5.10 MiB
      Overlap op: 2.03 MiB
      PW-descriptor: 0.67 MiB

Total number of cores used: 32
Parallelization over k-points and spin: 32

Number of atoms: 8
Number of atomic orbitals: 72
Number of bands in calculation: 68
Bands to converge: occupied states only
Number of valence electrons: 82

... initialized

Initializing position-dependent things.

Density initialized from atomic densities
Creating initial wave functions:
  68 bands from LCAO basis set

                             
                             
                             
                             
                             
           Cu                
         Cu     Cu           
             Cu              
              Cu             
           Fe     Cu         
                Fe           
                             
                             
                             
                             
                             

Positions:
   0 Fe     0.000003    0.000003    0.000003
   1 Fe     1.318056    1.318056   -1.318041
   2 Cu     1.320897   -1.319462    1.319476
   3 Cu     2.638951   -0.001408    0.001432
   4 Cu    -1.319462    1.320897    1.319476
   5 Cu    -0.001408    2.638951    0.001432
   6 Cu     0.001432    0.001432    2.638949
   7 Cu     1.319486    1.319486    1.320906

Unit cell:
           periodic     x           y           z      points  spacing
  1. axis:    yes   -2.638929    2.641789    2.638946    20     0.1867
  2. axis:    yes    2.641789   -2.638929    2.638946    20     0.1867
  3. axis:    yes    2.636107    2.636107   -2.636087    20     0.1865

  Lengths:   4.572421   4.572421   4.565860
  Angles:  109.441942 109.441942 109.500121

Effective grid spacing dv^(1/3) = 0.2095

                     log10-error:    total        iterations:
           time      wfs    density  energy       fermi  poisson  magmom
iter:   1  09:30:09  +2.00   +inf   -55.917486    35              +0.8143
iter:   2  09:30:15  +0.22   +inf   -56.506057    3               +0.8172
iter:   3  09:30:21  -0.79   +inf   -56.592070    2               +0.8179
iter:   4  09:30:27  +0.25  -1.13   -38.253829    34              +3.3306
iter:   5  09:30:33  -0.33  -1.31   -35.944841    3               +3.6357
iter:   6  09:30:39  +0.43  -1.44   -34.709483    35              +3.7488
iter:   7  09:30:45  -0.57  -1.94   -34.263703    2               +3.8006
iter:   8  09:30:52  -0.32  -1.99   -34.592852    2               +3.6801
iter:   9  09:30:58  -1.35  -1.97   -34.131796    3               +3.7635
iter:  10  09:31:04  -2.13  -2.49   -34.086086    3               +3.8043
iter:  11  09:31:10  -3.02  -2.49   -34.083625    2               +3.8192
iter:  12  09:31:17  -2.25  -2.47   -34.082363    3               +3.8631
iter:  13  09:31:23  -3.17  -2.76   -34.083498    2               +3.8790
iter:  14  09:31:29  -3.65  -2.93   -34.082926    3               +3.8778
iter:  15  09:31:35  -3.46  -3.06   -34.082385    2               +3.8804
iter:  16  09:31:41  -3.00  -3.15   -34.081337    2               +3.8848
iter:  17  09:31:48  -4.34  -3.35   -34.081615    2               +3.8862
iter:  18  09:31:54  -4.32  -3.38   -34.081971    2               +3.8882
iter:  19  09:32:00  -4.04  -3.39   -34.082325    2               +3.9014
iter:  20  09:32:06  -5.16  -3.57   -34.082266    2               +3.9029
iter:  21  09:32:13  -4.45  -3.75   -34.082340    2               +3.9060
iter:  22  09:32:19  -5.83  -4.26   -34.082317    2               +3.9052
iter:  23  09:32:25  -6.41  -4.37   -34.082332    2               +3.9059
iter:  24  09:32:31  -5.74  -4.42   -34.082409    2               +3.9099
iter:  25  09:32:37  -6.70  -4.57   -34.082459    2               +3.9121
iter:  26  09:32:44  -6.85  -4.65   -34.082485    1               +3.9130
iter:  27  09:32:50  -6.28  -4.67   -34.082552    2               +3.9164
iter:  28  09:32:56  -6.93  -4.81   -34.082583    2               +3.9186
iter:  29  09:33:02  -6.96  -4.99   -34.082576    1               +3.9182
iter:  30  09:33:08  -7.38  -4.98   -34.082592    2               +3.9192
iter:  31  09:33:14  -7.26  -4.94   -34.082581    2               +3.9186
iter:  32  09:33:21  -6.81  -4.94   -34.082596    2               +3.9194
iter:  33  09:33:27  -7.58  -4.92   -34.082603    2               +3.9200

Converged after 33 iterations.

Dipole moment: (-0.000194, -0.000194, -0.000204) |e|*Ang

Total magnetic moment: 3.920022
Local magnetic moments:
   0 Fe 1.872991
   1 Fe 1.872991
   2 Cu 0.041598
   3 Cu 0.041598
   4 Cu 0.041598
   5 Cu 0.041598
   6 Cu 0.041743
   7 Cu 0.041743

Energy contributions relative to reference atoms: (reference = -339367.620247)

Kinetic:        +51.206014
Potential:      -40.874753
External:        +0.000000
XC:             -45.193395
Entropy (-ST):   -0.189207
Local:           +0.874134
--------------------------
Free energy:    -34.177206
Extrapolated:   -34.082603

Spin contamination: 0.245298 electrons
Fermi level: 12.24521

Warning: Showing only first 2 kpts
                      Up                     Down
 Kpt  Band  Eigenvalues  Occupancy  Eigenvalues  Occupancy
  0    39     11.44781    0.00400     12.24923    0.00196
  0    40     11.56182    0.00400     12.57377    0.00014
  0    41     11.66981    0.00399     12.77540    0.00002
  0    42     11.78432    0.00396     13.13553    0.00000

  1    39     11.37226    0.00400     12.57131    0.00015
  1    40     11.53510    0.00400     12.69681    0.00004
  1    41     11.96991    0.00376     13.06005    0.00000
  1    42     12.12998    0.00304     13.11195    0.00000



Forces in eV/Ang:
  0 Fe   -0.00000   -0.00000   -0.00000
  1 Fe   -0.00000   -0.00000   -0.00000
  2 Cu   -0.00000   -0.00000   -0.00000
  3 Cu   -0.00000   -0.00000   -0.00000
  4 Cu   -0.00000   -0.00000   -0.00000
  5 Cu   -0.00000   -0.00000   -0.00000
  6 Cu   -0.00000   -0.00000   -0.00000
  7 Cu   -0.00000   -0.00000   -0.00000

Stress tensor:
    -0.470102     0.017232    -0.017459
     0.017232    -0.470102    -0.017459
    -0.017459    -0.017459    -0.470068
Writing to fecu_id11_relaxed.gpw (mode='')

System changes: positions, cell 

Initialize ...

Fe-setup:
  name: Iron
  id: 37abbd8d6c3c35915a9b583b742da910
  Z: 26
  valence: 8
  core: 18
  charge: 0.0
  file: /home/davidkl/gpaw-setups-0.9.20000/Fe.PBE.gz
  cutoffs: 1.06(comp), 2.06(filt), 2.67(core), lmax=2
  valence states:
                energy  radius
    4s(2.00)    -5.291   1.164
    4p(0.00)    -1.326   1.058
    3d(6.00)    -7.505   1.058
    *s          21.920   1.164
    *p          25.885   1.058
    *d          19.706   1.058

  Using partial waves for Fe as LCAO basis

Cu-setup:
  name: Copper
  id: f1c4d45d90492f1bbfdcb091e8418fdf
  Z: 29
  valence: 11
  core: 18
  charge: 0.0
  file: /home/davidkl/gpaw-setups-0.9.20000/Cu.PBE.gz
  cutoffs: 1.06(comp), 2.06(filt), 2.43(core), lmax=2
  valence states:
                energy  radius
    4s(1.00)    -4.609   1.164
    4p(0.00)    -0.698   1.164
    3d(10.00)    -5.039   1.058
    *s          22.603   1.164
    *p          26.513   1.164
    *d          22.172   1.058

  Using partial waves for Cu as LCAO basis

Reference energy: -339367.620247

Spin-polarized calculation.
Magnetic moment:  4.400000

Occupation numbers:
  Fermi-Dirac: width=0.1000 eV

Convergence criteria:
  Maximum total energy change: 0.0005 eV / electron
  Maximum integral of absolute density change: 0.0001 electrons
  Maximum integral of absolute eigenstate change: 4e-08 eV^2
  Maximum number of iterations: 333

Symmetries present (total): 2

  ( 1  0  0)  ( 0  1  0)
  ( 0  1  0)  ( 1  0  0)
  ( 0  0  1)  ( 0  0  1)

1000 k-points: 10 x 10 x 10 Monkhorst-Pack grid
275 k-points in the irreducible part of the Brillouin zone
       k-points in crystal coordinates                weights
   0:     0.05000000   -0.05000000    0.05000000          4/1000
   1:     0.05000000   -0.05000000    0.15000000          4/1000
   2:     0.05000000   -0.05000000    0.25000000          4/1000
   3:     0.05000000   -0.05000000    0.35000000          4/1000
   4:     0.05000000   -0.05000000    0.45000000          4/1000
   5:     0.05000000    0.05000000   -0.45000000          2/1000
   6:     0.05000000    0.05000000   -0.35000000          2/1000
   7:     0.05000000    0.05000000   -0.25000000          2/1000
   8:     0.05000000    0.05000000   -0.15000000          2/1000
   9:     0.05000000    0.05000000   -0.05000000          2/1000
          ...
 274:     0.45000000    0.45000000    0.45000000          2/1000

Wave functions: Plane wave expansion
  Cutoff energy: 500.000 eV
  Number of coefficients (min, max): 1877, 1920
  Pulay-stress correction: 0.000000 eV/Ang^3 (de/decut=0.000000)
  Using FFTW library
  Eigensolver: None  MatrixOperator buffer_size: default value or 
                              see value of nblock in input file
Diagonalizer layout: Serial LAPACKOrthonormalizer layout: Serial LAPACK 

Davidson(niter=1, smin=None, normalize=True) 

Densities:
  Coarse grid: 20*20*20 grid
  Fine grid: 40*40*40 grid
  Total Charge: 0.000000 

Density mixing:
  Method: sum
  Backend: pulay
  Linear mixing parameter: 0.05
  Mixing with 5 old densities
  Damping of long wave oscillations: 50 

Hamiltonian:
  XC and Coulomb potentials evaluated on a 40*40*40 grid
  Using the PBE Exchange-Correlation functional
 

Memory estimate:
  Process memory now: 250.90 MiB
  Calculator: 53.04 MiB
    Density: 4.25 MiB
      Arrays: 2.14 MiB
      Localized functions: 1.51 MiB
      Mixer: 0.61 MiB
    Hamiltonian: 1.62 MiB
      Arrays: 1.59 MiB
      XC: 0.00 MiB
      Poisson: 0.00 MiB
      vbar: 0.04 MiB
    Wavefunctions: 47.17 MiB
      Arrays psit_nG: 33.87 MiB
      Eigensolver: 2.85 MiB
      Projections: 2.54 MiB
      Projectors: 5.17 MiB
      Overlap op: 2.06 MiB
      PW-descriptor: 0.67 MiB

Total number of cores used: 32
Parallelization over k-points and spin: 32

Number of atoms: 8
Number of atomic orbitals: 72
Number of bands in calculation: 68
Bands to converge: occupied states only
Number of valence electrons: 82

... initialized

Initializing position-dependent things.

Density initialized from atomic densities
Creating initial wave functions:
  68 bands from LCAO basis set

                             
                             
                             
                             
                             
           Cu                
         Cu     Cu           
             Cu              
              Cu             
           Fe     Cu         
                Fe           
                             
                             
                             
                             
                             

Positions:
   0 Fe     0.000003    0.000003    0.000003
   1 Fe     1.324081    1.324081   -1.324061
   2 Cu     1.327856   -1.325951    1.325967
   3 Cu     2.651934   -0.001873    0.001903
   4 Cu    -1.325951    1.327856    1.325967
   5 Cu    -0.001873    2.651934    0.001903
   6 Cu     0.001903    0.001903    2.651931
   7 Cu     1.325981    1.325981    1.327867

Unit cell:
           periodic     x           y           z      points  spacing
  1. axis:    yes   -2.651906    2.655707    2.651928    20     0.1877
  2. axis:    yes    2.655707   -2.651906    2.651928    20     0.1877
  3. axis:    yes    2.648156    2.648156   -2.648128    20     0.1874

  Lengths:   4.595445   4.595445   4.586724
  Angles:  109.432497 109.432497 109.509441

Effective grid spacing dv^(1/3) = 0.2105

                     log10-error:    total        iterations:
           time      wfs    density  energy       fermi  poisson  magmom
iter:   1  09:33:59  +2.01   +inf   -56.366827    34              +0.8051
iter:   2  09:34:05  +0.22   +inf   -56.955900    3               +0.8082
iter:   3  09:34:10  -0.79   +inf   -57.041952    2               +0.8088
iter:   4  09:34:17  +0.26  -1.13   -38.653001    33              +3.3795
iter:   5  09:34:23  -0.35  -1.31   -36.438585    3               +3.7066
iter:   6  09:34:29  +0.42  -1.43   -35.155676    33              +3.8425
iter:   7  09:34:36  -0.59  -1.94   -34.755555    2               +3.8764
iter:   8  09:34:42  -0.36  -1.99   -35.056031    3               +3.7518
iter:   9  09:34:48  -1.45  -2.00   -34.636276    3               +3.8469
iter:  10  09:34:54  -2.14  -2.48   -34.590469    3               +3.8910
iter:  11  09:35:01  -2.83  -2.48   -34.588307    3               +3.9283
iter:  12  09:35:07  -2.35  -2.52   -34.586679    2               +3.9679
iter:  13  09:35:13  -3.31  -3.05   -34.585245    2               +3.9729
iter:  14  09:35:20  -4.02  -3.19   -34.585756    2               +3.9766
iter:  15  09:35:26  -3.73  -3.20   -34.587014    2               +3.9833
iter:  16  09:35:32  -3.44  -3.22   -34.585332    2               +3.9814
iter:  17  09:35:38  -4.13  -3.23   -34.586948    2               +4.0038
iter:  18  09:35:45  -4.46  -3.44   -34.587013    2               +4.0108
iter:  19  09:35:51  -4.73  -3.64   -34.587205    2               +4.0160
iter:  20  09:35:57  -5.59  -3.98   -34.587168    1               +4.0149
iter:  21  09:36:03  -5.48  -4.02   -34.587341    2               +4.0206
iter:  22  09:36:10  -5.67  -4.20   -34.587524    2               +4.0283
iter:  23  09:36:16  -6.31  -4.39   -34.587574    2               +4.0304
iter:  24  09:36:22  -6.44  -4.41   -34.587613    2               +4.0320
iter:  25  09:36:29  -6.90  -4.47   -34.587598    2               +4.0319
iter:  26  09:36:35  -7.53  -4.54   -34.587589    2               +4.0319

Converged after 26 iterations.

Dipole moment: (-0.000196, -0.000196, -0.000206) |e|*Ang

Total magnetic moment: 4.031920
Local magnetic moments:
   0 Fe 1.925173
   1 Fe 1.925173
   2 Cu 0.042780
   3 Cu 0.042780
   4 Cu 0.042780
   5 Cu 0.042780
   6 Cu 0.042934
   7 Cu 0.042934

Energy contributions relative to reference atoms: (reference = -339367.620247)

Kinetic:        +41.437547
Potential:      -33.056482
External:        +0.000000
XC:             -43.755460
Entropy (-ST):   -0.190480
Local:           +0.882046
--------------------------
Free energy:    -34.682829
Extrapolated:   -34.587589

Spin contamination: 0.251495 electrons
Fermi level: 12.00266

Warning: Showing only first 2 kpts
                      Up                     Down
 Kpt  Band  Eigenvalues  Occupancy  Eigenvalues  Occupancy
  0    39     11.19107    0.00400     12.01077    0.00192
  0    40     11.30687    0.00400     12.32854    0.00015
  0    41     11.38813    0.00399     12.52996    0.00002
  0    42     11.51957    0.00397     12.89656    0.00000

  1    39     11.10639    0.00400     12.32730    0.00015
  1    40     11.25641    0.00400     12.45641    0.00004
  1    41     11.70827    0.00380     12.82416    0.00000
  1    42     11.86684    0.00318     12.86697    0.00000



Forces in eV/Ang:
  0 Fe   -0.00000   -0.00000   -0.00000
  1 Fe   -0.00000   -0.00000   -0.00000
  2 Cu   -0.00000   -0.00000   -0.00000
  3 Cu   -0.00000   -0.00000   -0.00000
  4 Cu   -0.00000   -0.00000   -0.00000
  5 Cu   -0.00000   -0.00000   -0.00000
  6 Cu   -0.00000   -0.00000   -0.00000
  7 Cu   -0.00000   -0.00000   -0.00000

Stress tensor:
    -0.428483     0.015766    -0.015972
     0.015766    -0.428483    -0.015972
    -0.015972    -0.015972    -0.428452
Writing to fecu_id11_relaxed.gpw (mode='')

System changes: positions, cell 

Initialize ...

Fe-setup:
  name: Iron
  id: 37abbd8d6c3c35915a9b583b742da910
  Z: 26
  valence: 8
  core: 18
  charge: 0.0
  file: /home/davidkl/gpaw-setups-0.9.20000/Fe.PBE.gz
  cutoffs: 1.06(comp), 2.06(filt), 2.67(core), lmax=2
  valence states:
                energy  radius
    4s(2.00)    -5.291   1.164
    4p(0.00)    -1.326   1.058
    3d(6.00)    -7.505   1.058
    *s          21.920   1.164
    *p          25.885   1.058
    *d          19.706   1.058

  Using partial waves for Fe as LCAO basis

Cu-setup:
  name: Copper
  id: f1c4d45d90492f1bbfdcb091e8418fdf
  Z: 29
  valence: 11
  core: 18
  charge: 0.0
  file: /home/davidkl/gpaw-setups-0.9.20000/Cu.PBE.gz
  cutoffs: 1.06(comp), 2.06(filt), 2.43(core), lmax=2
  valence states:
                energy  radius
    4s(1.00)    -4.609   1.164
    4p(0.00)    -0.698   1.164
    3d(10.00)    -5.039   1.058
    *s          22.603   1.164
    *p          26.513   1.164
    *d          22.172   1.058

  Using partial waves for Cu as LCAO basis

Reference energy: -339367.620247

Spin-polarized calculation.
Magnetic moment:  4.400000

Occupation numbers:
  Fermi-Dirac: width=0.1000 eV

Convergence criteria:
  Maximum total energy change: 0.0005 eV / electron
  Maximum integral of absolute density change: 0.0001 electrons
  Maximum integral of absolute eigenstate change: 4e-08 eV^2
  Maximum number of iterations: 333

Symmetries present (total): 2

  ( 1  0  0)  ( 0  1  0)
  ( 0  1  0)  ( 1  0  0)
  ( 0  0  1)  ( 0  0  1)

1000 k-points: 10 x 10 x 10 Monkhorst-Pack grid
275 k-points in the irreducible part of the Brillouin zone
       k-points in crystal coordinates                weights
   0:     0.05000000   -0.05000000    0.05000000          4/1000
   1:     0.05000000   -0.05000000    0.15000000          4/1000
   2:     0.05000000   -0.05000000    0.25000000          4/1000
   3:     0.05000000   -0.05000000    0.35000000          4/1000
   4:     0.05000000   -0.05000000    0.45000000          4/1000
   5:     0.05000000    0.05000000   -0.45000000          2/1000
   6:     0.05000000    0.05000000   -0.35000000          2/1000
   7:     0.05000000    0.05000000   -0.25000000          2/1000
   8:     0.05000000    0.05000000   -0.15000000          2/1000
   9:     0.05000000    0.05000000   -0.05000000          2/1000
          ...
 274:     0.45000000    0.45000000    0.45000000          2/1000

Wave functions: Plane wave expansion
  Cutoff energy: 500.000 eV
  Number of coefficients (min, max): 1908, 1936
  Pulay-stress correction: 0.000000 eV/Ang^3 (de/decut=0.000000)
  Using FFTW library
  Eigensolver: None  MatrixOperator buffer_size: default value or 
                              see value of nblock in input file
Diagonalizer layout: Serial LAPACKOrthonormalizer layout: Serial LAPACK 

Davidson(niter=1, smin=None, normalize=True) 

Densities:
  Coarse grid: 20*20*20 grid
  Fine grid: 40*40*40 grid
  Total Charge: 0.000000 

Density mixing:
  Method: sum
  Backend: pulay
  Linear mixing parameter: 0.05
  Mixing with 5 old densities
  Damping of long wave oscillations: 50 

Hamiltonian:
  XC and Coulomb potentials evaluated on a 40*40*40 grid
  Using the PBE Exchange-Correlation functional
 

Memory estimate:
  Process memory now: 250.91 MiB
  Calculator: 53.44 MiB
    Density: 4.25 MiB
      Arrays: 2.14 MiB
      Localized functions: 1.51 MiB
      Mixer: 0.61 MiB
    Hamiltonian: 1.62 MiB
      Arrays: 1.59 MiB
      XC: 0.00 MiB
      Poisson: 0.00 MiB
      vbar: 0.04 MiB
    Wavefunctions: 47.56 MiB
      Arrays psit_nG: 34.15 MiB
      Eigensolver: 2.86 MiB
      Projections: 2.54 MiB
      Projectors: 5.25 MiB
      Overlap op: 2.08 MiB
      PW-descriptor: 0.68 MiB

Total number of cores used: 32
Parallelization over k-points and spin: 32

Number of atoms: 8
Number of atomic orbitals: 72
Number of bands in calculation: 68
Bands to converge: occupied states only
Number of valence electrons: 82

... initialized

Initializing position-dependent things.

Density initialized from atomic densities
Creating initial wave functions:
  68 bands from LCAO basis set

                             
                             
                             
                             
                             
           Cu                
         Cu     Cu           
             Cu              
              Cu             
           Fe     Cu         
                Fe           
                             
                             
                             
                             
                             

Positions:
   0 Fe     0.000003    0.000003    0.000003
   1 Fe     1.330105    1.330105   -1.330082
   2 Cu     1.334815   -1.332439    1.332458
   3 Cu     2.664917   -0.002336    0.002373
   4 Cu    -1.332439    1.334815    1.332458
   5 Cu    -0.002336    2.664917    0.002373
   6 Cu     0.002373    0.002373    2.664913
   7 Cu     1.332476    1.332476    1.334828

Unit cell:
           periodic     x           y           z      points  spacing
  1. axis:    yes   -2.664884    2.669624    2.664910    20     0.1886
  2. axis:    yes    2.669624   -2.664884    2.664910    20     0.1886
  3. axis:    yes    2.660205    2.660205   -2.660170    20     0.1883

  Lengths:   4.618468   4.618468   4.607590
  Angles:  109.423159 109.423159 109.518655

Effective grid spacing dv^(1/3) = 0.2115

                     log10-error:    total        iterations:
           time      wfs    density  energy       fermi  poisson  magmom
iter:   1  09:37:07  +2.01   +inf   -56.776226    35              +0.7958
iter:   2  09:37:13  +0.22   +inf   -57.362569    3               +0.7990
iter:   3  09:37:19  -0.79   +inf   -57.447982    2               +0.7996
iter:   4  09:37:25  +0.27  -1.12   -39.012559    31              +3.4288
iter:   5  09:37:31  -0.37  -1.31   -36.891177    3               +3.7769
iter:   6  09:37:38  +0.41  -1.43   -35.565723    35              +3.9304
iter:   7  09:37:44  -0.60  -1.94   -35.207760    3               +3.9499
iter:   8  09:37:50  -0.41  -1.98   -35.478174    3               +3.8241
iter:   9  09:37:56  -1.57  -2.02   -35.101665    3               +3.9282
iter:  10  09:38:03  -2.15  -2.47   -35.055286    3               +3.9752
iter:  11  09:38:09  -2.52  -2.48   -35.072817    3               +4.0672
iter:  12  09:38:15  -2.21  -2.45   -35.051518    2               +4.0778
iter:  13  09:38:22  -3.46  -3.07   -35.051354    2               +4.0786
iter:  14  09:38:28  -4.02  -3.13   -35.051725    2               +4.0803
iter:  15  09:38:34  -4.30  -3.17   -35.052395    2               +4.0915
iter:  16  09:38:41  -3.92  -3.27   -35.052702    2               +4.1045
iter:  17  09:38:47  -4.70  -3.36   -35.052804    2               +4.1057
iter:  18  09:38:53  -3.91  -3.44   -35.052807    2               +4.1159
iter:  19  09:38:59  -4.64  -3.75   -35.052851    2               +4.1229
iter:  20  09:39:06  -5.47  -4.23   -35.052878    2               +4.1241
iter:  21  09:39:12  -5.51  -4.27   -35.052946    2               +4.1270
iter:  22  09:39:18  -5.85  -4.39   -35.052956    2               +4.1283
iter:  23  09:39:25  -6.67  -4.41   -35.052988    2               +4.1297
iter:  24  09:39:31  -6.42  -4.44   -35.053047    1               +4.1322
iter:  25  09:39:37  -5.62  -4.52   -35.053201    2               +4.1392
iter:  26  09:39:43  -6.66  -4.78   -35.053221    2               +4.1405
iter:  27  09:39:50  -7.11  -4.72   -35.053219    1               +4.1403
iter:  28  09:39:56  -7.78  -4.67   -35.053208    2               +4.1400

Converged after 28 iterations.

Dipole moment: (-0.000198, -0.000198, -0.000208) |e|*Ang

Total magnetic moment: 4.140007
Local magnetic moments:
   0 Fe 1.975947
   1 Fe 1.975947
   2 Cu 0.043920
   3 Cu 0.043920
   4 Cu 0.043920
   5 Cu 0.043920
   6 Cu 0.044082
   7 Cu 0.044082

Energy contributions relative to reference atoms: (reference = -339367.620247)

Kinetic:        +33.162368
Potential:      -26.535894
External:        +0.000000
XC:             -42.433564
Entropy (-ST):   -0.191827
Local:           +0.849795
--------------------------
Free energy:    -35.149122
Extrapolated:   -35.053208

Spin contamination: 0.257487 electrons
Fermi level: 11.76623

Warning: Showing only first 2 kpts
                      Up                     Down
 Kpt  Band  Eigenvalues  Occupancy  Eigenvalues  Occupancy
  0    39     10.94840    0.00400     11.77819    0.00188
  0    40     11.05906    0.00400     12.08909    0.00015
  0    41     11.11409    0.00399     12.29026    0.00002
  0    42     11.26002    0.00397     12.66296    0.00000

  1    39     10.84771    0.00400     12.08892    0.00015
  1    40     10.98463    0.00400     12.22155    0.00004
  1    41     11.45254    0.00383     12.59371    0.00000
  1    42     11.61040    0.00330     12.62762    0.00000



Forces in eV/Ang:
  0 Fe   -0.00000   -0.00000   -0.00000
  1 Fe   -0.00000   -0.00000   -0.00000
  2 Cu   -0.00000   -0.00000   -0.00000
  3 Cu   -0.00000   -0.00000   -0.00000
  4 Cu   -0.00000   -0.00000   -0.00000
  5 Cu   -0.00000   -0.00000   -0.00000
  6 Cu   -0.00000   -0.00000   -0.00000
  7 Cu   -0.00000   -0.00000   -0.00000

Stress tensor:
    -0.389987     0.014435    -0.014621
     0.014435    -0.389987    -0.014621
    -0.014621    -0.014621    -0.389955
Writing to fecu_id11_relaxed.gpw (mode='')

System changes: positions, cell 

Initialize ...

Fe-setup:
  name: Iron
  id: 37abbd8d6c3c35915a9b583b742da910
  Z: 26
  valence: 8
  core: 18
  charge: 0.0
  file: /home/davidkl/gpaw-setups-0.9.20000/Fe.PBE.gz
  cutoffs: 1.06(comp), 2.06(filt), 2.67(core), lmax=2
  valence states:
                energy  radius
    4s(2.00)    -5.291   1.164
    4p(0.00)    -1.326   1.058
    3d(6.00)    -7.505   1.058
    *s          21.920   1.164
    *p          25.885   1.058
    *d          19.706   1.058

  Using partial waves for Fe as LCAO basis

Cu-setup:
  name: Copper
  id: f1c4d45d90492f1bbfdcb091e8418fdf
  Z: 29
  valence: 11
  core: 18
  charge: 0.0
  file: /home/davidkl/gpaw-setups-0.9.20000/Cu.PBE.gz
  cutoffs: 1.06(comp), 2.06(filt), 2.43(core), lmax=2
  valence states:
                energy  radius
    4s(1.00)    -4.609   1.164
    4p(0.00)    -0.698   1.164
    3d(10.00)    -5.039   1.058
    *s          22.603   1.164
    *p          26.513   1.164
    *d          22.172   1.058

  Using partial waves for Cu as LCAO basis

Reference energy: -339367.620247

Spin-polarized calculation.
Magnetic moment:  4.400000

Occupation numbers:
  Fermi-Dirac: width=0.1000 eV

Convergence criteria:
  Maximum total energy change: 0.0005 eV / electron
  Maximum integral of absolute density change: 0.0001 electrons
  Maximum integral of absolute eigenstate change: 4e-08 eV^2
  Maximum number of iterations: 333

Symmetries present (total): 2

  ( 1  0  0)  ( 0  1  0)
  ( 0  1  0)  ( 1  0  0)
  ( 0  0  1)  ( 0  0  1)

1000 k-points: 10 x 10 x 10 Monkhorst-Pack grid
275 k-points in the irreducible part of the Brillouin zone
       k-points in crystal coordinates                weights
   0:     0.05000000   -0.05000000    0.05000000          4/1000
   1:     0.05000000   -0.05000000    0.15000000          4/1000
   2:     0.05000000   -0.05000000    0.25000000          4/1000
   3:     0.05000000   -0.05000000    0.35000000          4/1000
   4:     0.05000000   -0.05000000    0.45000000          4/1000
   5:     0.05000000    0.05000000   -0.45000000          2/1000
   6:     0.05000000    0.05000000   -0.35000000          2/1000
   7:     0.05000000    0.05000000   -0.25000000          2/1000
   8:     0.05000000    0.05000000   -0.15000000          2/1000
   9:     0.05000000    0.05000000   -0.05000000          2/1000
          ...
 274:     0.45000000    0.45000000    0.45000000          2/1000

Wave functions: Plane wave expansion
  Cutoff energy: 500.000 eV
  Number of coefficients (min, max): 1927, 1963
  Pulay-stress correction: 0.000000 eV/Ang^3 (de/decut=0.000000)
  Using FFTW library
  Eigensolver: None  MatrixOperator buffer_size: default value or 
                              see value of nblock in input file
Diagonalizer layout: Serial LAPACKOrthonormalizer layout: Serial LAPACK 

Davidson(niter=1, smin=None, normalize=True) 

Densities:
  Coarse grid: 20*20*20 grid
  Fine grid: 40*40*40 grid
  Total Charge: 0.000000 

Density mixing:
  Method: sum
  Backend: pulay
  Linear mixing parameter: 0.05
  Mixing with 5 old densities
  Damping of long wave oscillations: 50 

Hamiltonian:
  XC and Coulomb potentials evaluated on a 40*40*40 grid
  Using the PBE Exchange-Correlation functional
 

Memory estimate:
  Process memory now: 250.94 MiB
  Calculator: 54.06 MiB
    Density: 4.25 MiB
      Arrays: 2.14 MiB
      Localized functions: 1.51 MiB
      Mixer: 0.61 MiB
    Hamiltonian: 1.62 MiB
      Arrays: 1.59 MiB
      XC: 0.00 MiB
      Poisson: 0.00 MiB
      vbar: 0.04 MiB
    Wavefunctions: 48.18 MiB
      Arrays psit_nG: 34.63 MiB
      Eigensolver: 2.89 MiB
      Projections: 2.54 MiB
      Projectors: 5.33 MiB
      Overlap op: 2.11 MiB
      PW-descriptor: 0.69 MiB

Total number of cores used: 32
Parallelization over k-points and spin: 32

Number of atoms: 8
Number of atomic orbitals: 72
Number of bands in calculation: 68
Bands to converge: occupied states only
Number of valence electrons: 82

... initialized

Initializing position-dependent things.

Density initialized from atomic densities
Creating initial wave functions:
  68 bands from LCAO basis set

                             
                             
                             
                             
                             
           Cu                
         Cu     Cu           
             Cu              
              Cu             
           Fe     Cu         
                Fe           
                             
                             
                             
                             
                             

Positions:
   0 Fe     0.000003    0.000003    0.000003
   1 Fe     1.336129    1.336129   -1.336102
   2 Cu     1.341774   -1.338928    1.338949
   3 Cu     2.677900   -0.002801    0.002844
   4 Cu    -1.338928    1.341774    1.338949
   5 Cu    -0.002801    2.677900    0.002844
   6 Cu     0.002844    0.002844    2.677895
   7 Cu     1.338970    1.338970    1.341790

Unit cell:
           periodic     x           y           z      points  spacing
  1. axis:    yes   -2.677861    2.683543    2.677892    20     0.1896
  2. axis:    yes    2.683543   -2.677861    2.677892    20     0.1896
  3. axis:    yes    2.672253    2.672253   -2.672210    20     0.1892

  Lengths:   4.641492   4.641492   4.628453
  Angles:  109.413894 109.413894 109.527798

Effective grid spacing dv^(1/3) = 0.2125

                     log10-error:    total        iterations:
           time      wfs    density  energy       fermi  poisson  magmom
iter:   1  09:40:29  +2.01   +inf   -57.144627    36              +0.7864
iter:   2  09:40:34  +0.22   +inf   -57.726936    3               +0.7896
iter:   3  09:40:40  -0.80   +inf   -57.811732    2               +0.7902
iter:   4  09:40:47  +0.28  -1.12   -39.334125    34              +3.4783
iter:   5  09:40:53  -0.39  -1.31   -37.304162    3               +3.8465
iter:   6  09:41:00  +0.40  -1.43   -35.941400    32              +4.0132
iter:   7  09:41:06  -0.62  -1.94   -35.622064    2               +4.0213
iter:   8  09:41:12  -0.45  -1.97   -35.861590    3               +3.8970
iter:   9  09:41:19  -1.70  -2.05   -35.529495    3               +4.0072
iter:  10  09:41:25  -2.15  -2.46   -35.482109    3               +4.0568
iter:  11  09:41:32  -2.37  -2.48   -35.509501    2               +4.1951
iter:  12  09:41:38  -2.13  -2.38   -35.478498    2               +4.1763
iter:  13  09:41:44  -3.44  -3.08   -35.479283    2               +4.1792
iter:  14  09:41:51  -4.00  -3.08   -35.479147    2               +4.1777
iter:  15  09:41:57  -4.26  -3.13   -35.480004    2               +4.1903
iter:  16  09:42:04  -3.58  -3.31   -35.480136    2               +4.2067
iter:  17  09:42:10  -4.14  -3.70   -35.480157    2               +4.2123
iter:  18  09:42:17  -5.15  -3.97   -35.480240    2               +4.2154
iter:  19  09:42:23  -5.52  -3.98   -35.480387    2               +4.2206
iter:  20  09:42:29  -5.33  -4.07   -35.480650    2               +4.2296
iter:  21  09:42:36  -6.11  -4.21   -35.480705    1               +4.2321
iter:  22  09:42:42  -6.48  -4.35   -35.480705    2               +4.2323
iter:  23  09:42:49  -6.99  -4.33   -35.480712    2               +4.2324
iter:  24  09:42:55  -6.29  -4.35   -35.480748    2               +4.2344
iter:  25  09:43:01  -6.32  -4.32   -35.480688    2               +4.2319
iter:  26  09:43:08  -6.57  -4.35   -35.480730    2               +4.2336
iter:  27  09:43:14  -6.50  -4.38   -35.480716    2               +4.2325
iter:  28  09:43:21  -7.29  -4.37   -35.480711    2               +4.2322
iter:  29  09:43:27  -6.79  -4.35   -35.480729    2               +4.2329
iter:  30  09:43:34  -6.85  -4.38   -35.480757    2               +4.2343
iter:  31  09:43:40  -6.48  -4.39   -35.480801    2               +4.2361
iter:  32  09:43:46  -6.30  -4.51   -35.480830    2               +4.2370
iter:  33  09:43:53  -6.66  -4.46   -35.480848    2               +4.2378
iter:  34  09:43:59  -7.00  -4.50   -35.480844    2               +4.2378
iter:  35  09:44:06  -7.57  -4.51   -35.480831    2               +4.2371

Converged after 35 iterations.

Dipole moment: (-0.000200, -0.000200, -0.000210) |e|*Ang

Total magnetic moment: 4.237146
Local magnetic moments:
   0 Fe 2.019657
   1 Fe 2.019657
   2 Cu 0.044737
   3 Cu 0.044737
   4 Cu 0.044737
   5 Cu 0.044737
   6 Cu 0.044900
   7 Cu 0.044900

Energy contributions relative to reference atoms: (reference = -339367.620247)

Kinetic:        +24.543000
Potential:      -19.672502
External:        +0.000000
XC:             -41.099436
Entropy (-ST):   -0.193481
Local:           +0.844847
--------------------------
Free energy:    -35.577571
Extrapolated:   -35.480831

Spin contamination: 0.262887 electrons
Fermi level: 11.53295

Warning: Showing only first 2 kpts
                      Up                     Down
 Kpt  Band  Eigenvalues  Occupancy  Eigenvalues  Occupancy
  0    39     10.71476    0.00400     11.54841    0.00185
  0    40     10.81695    0.00400     11.85120    0.00016
  0    41     10.84717    0.00400     12.05234    0.00002
  0    42     11.00640    0.00398     12.42990    0.00000

  1    39     10.59560    0.00400     11.85215    0.00016
  1    40     10.71956    0.00400     11.98983    0.00004
  1    41     11.20238    0.00386     12.36363    0.00000
  1    42     11.36018    0.00340     12.39010    0.00000



Forces in eV/Ang:
  0 Fe   -0.00000   -0.00000   -0.00000
  1 Fe   -0.00000   -0.00000   -0.00000
  2 Cu   -0.00000   -0.00000   -0.00000
  3 Cu   -0.00000   -0.00000   -0.00000
  4 Cu   -0.00000   -0.00000   -0.00000
  5 Cu   -0.00000   -0.00000   -0.00000
  6 Cu   -0.00000   -0.00000   -0.00000
  7 Cu   -0.00000   -0.00000   -0.00000

Stress tensor:
    -0.353312     0.013297    -0.013458
     0.013297    -0.353312    -0.013458
    -0.013458    -0.013458    -0.353274
Writing to fecu_id11_relaxed.gpw (mode='')

System changes: positions, cell 

Initialize ...

Fe-setup:
  name: Iron
  id: 37abbd8d6c3c35915a9b583b742da910
  Z: 26
  valence: 8
  core: 18
  charge: 0.0
  file: /home/davidkl/gpaw-setups-0.9.20000/Fe.PBE.gz
  cutoffs: 1.06(comp), 2.06(filt), 2.67(core), lmax=2
  valence states:
                energy  radius
    4s(2.00)    -5.291   1.164
    4p(0.00)    -1.326   1.058
    3d(6.00)    -7.505   1.058
    *s          21.920   1.164
    *p          25.885   1.058
    *d          19.706   1.058

  Using partial waves for Fe as LCAO basis

Cu-setup:
  name: Copper
  id: f1c4d45d90492f1bbfdcb091e8418fdf
  Z: 29
  valence: 11
  core: 18
  charge: 0.0
  file: /home/davidkl/gpaw-setups-0.9.20000/Cu.PBE.gz
  cutoffs: 1.06(comp), 2.06(filt), 2.43(core), lmax=2
  valence states:
                energy  radius
    4s(1.00)    -4.609   1.164
    4p(0.00)    -0.698   1.164
    3d(10.00)    -5.039   1.058
    *s          22.603   1.164
    *p          26.513   1.164
    *d          22.172   1.058

  Using partial waves for Cu as LCAO basis

Reference energy: -339367.620247

Spin-polarized calculation.
Magnetic moment:  4.400000

Occupation numbers:
  Fermi-Dirac: width=0.1000 eV

Convergence criteria:
  Maximum total energy change: 0.0005 eV / electron
  Maximum integral of absolute density change: 0.0001 electrons
  Maximum integral of absolute eigenstate change: 4e-08 eV^2
  Maximum number of iterations: 333

Symmetries present (total): 2

  ( 1  0  0)  ( 0  1  0)
  ( 0  1  0)  ( 1  0  0)
  ( 0  0  1)  ( 0  0  1)

1000 k-points: 10 x 10 x 10 Monkhorst-Pack grid
275 k-points in the irreducible part of the Brillouin zone
       k-points in crystal coordinates                weights
   0:     0.05000000   -0.05000000    0.05000000          4/1000
   1:     0.05000000   -0.05000000    0.15000000          4/1000
   2:     0.05000000   -0.05000000    0.25000000          4/1000
   3:     0.05000000   -0.05000000    0.35000000          4/1000
   4:     0.05000000   -0.05000000    0.45000000          4/1000
   5:     0.05000000    0.05000000   -0.45000000          2/1000
   6:     0.05000000    0.05000000   -0.35000000          2/1000
   7:     0.05000000    0.05000000   -0.25000000          2/1000
   8:     0.05000000    0.05000000   -0.15000000          2/1000
   9:     0.05000000    0.05000000   -0.05000000          2/1000
          ...
 274:     0.45000000    0.45000000    0.45000000          2/1000

Wave functions: Plane wave expansion
  Cutoff energy: 500.000 eV
  Number of coefficients (min, max): 1943, 1998
  Pulay-stress correction: 0.000000 eV/Ang^3 (de/decut=0.000000)
  Using FFTW library
  Eigensolver: None  MatrixOperator buffer_size: default value or 
                              see value of nblock in input file
Diagonalizer layout: Serial LAPACKOrthonormalizer layout: Serial LAPACK 

Davidson(niter=1, smin=None, normalize=True) 

Densities:
  Coarse grid: 20*20*20 grid
  Fine grid: 40*40*40 grid
  Total Charge: 0.000000 

Density mixing:
  Method: sum
  Backend: pulay
  Linear mixing parameter: 0.05
  Mixing with 5 old densities
  Damping of long wave oscillations: 50 

Hamiltonian:
  XC and Coulomb potentials evaluated on a 40*40*40 grid
  Using the PBE Exchange-Correlation functional
 

Memory estimate:
  Process memory now: 250.98 MiB
  Calculator: 54.83 MiB
    Density: 4.25 MiB
      Arrays: 2.14 MiB
      Localized functions: 1.51 MiB
      Mixer: 0.61 MiB
    Hamiltonian: 1.62 MiB
      Arrays: 1.59 MiB
      XC: 0.00 MiB
      Poisson: 0.00 MiB
      vbar: 0.04 MiB
    Wavefunctions: 48.96 MiB
      Arrays psit_nG: 35.24 MiB
      Eigensolver: 2.93 MiB
      Projections: 2.54 MiB
      Projectors: 5.41 MiB
      Overlap op: 2.14 MiB
      PW-descriptor: 0.69 MiB

Total number of cores used: 32
Parallelization over k-points and spin: 32

Number of atoms: 8
Number of atomic orbitals: 72
Number of bands in calculation: 68
Bands to converge: occupied states only
Number of valence electrons: 82

... initialized

Initializing position-dependent things.

Density initialized from atomic densities
Creating initial wave functions:
  68 bands from LCAO basis set

                             
                             
                             
                             
                             
           Cu                
         Cu     Cu           
             Cu              
              Cu             
           Fe     Cu         
                Fe           
                             
                             
                             
                             
                             

Positions:
   0 Fe     0.000003    0.000003    0.000003
   1 Fe     1.342145    1.342145   -1.342115
   2 Cu     1.348740   -1.345416    1.345439
   3 Cu     2.690883   -0.003274    0.003322
   4 Cu    -1.345416    1.348740    1.345439
   5 Cu    -0.003274    2.690883    0.003322
   6 Cu     0.003322    0.003322    2.690876
   7 Cu     1.345464    1.345464    1.348758

Unit cell:
           periodic     x           y           z      points  spacing
  1. axis:    yes   -2.690838    2.697476    2.690873    20     0.1905
  2. axis:    yes    2.697476   -2.690838    2.690873    20     0.1905
  3. axis:    yes    2.684285    2.684285   -2.684235    20     0.1900

  Lengths:   4.664524   4.664524   4.649289
  Angles:  109.404571 109.404571 109.537009

Effective grid spacing dv^(1/3) = 0.2136

                     log10-error:    total        iterations:
           time      wfs    density  energy       fermi  poisson  magmom
iter:   1  09:44:39  +2.01   +inf   -57.470142    36              +0.7768
iter:   2  09:44:45  +0.22   +inf   -58.050280    3               +0.7800
iter:   3  09:44:50  -0.80   +inf   -58.135015    2               +0.7807
iter:   4  09:44:57  +0.28  -1.12   -39.619786    34              +3.5282
iter:   5  09:45:04  -0.41  -1.31   -37.679602    3               +3.9155
iter:   6  09:45:10  +0.39  -1.43   -36.284654    35              +4.0911
iter:   7  09:45:17  -0.64  -1.94   -36.000724    2               +4.0907
iter:   8  09:45:23  -0.50  -1.96   -36.208322    3               +3.9705
iter:   9  09:45:30  -1.84  -2.08   -35.921421    3               +4.0840
iter:  10  09:45:36  -2.15  -2.45   -35.872885    3               +4.1362
iter:  11  09:45:43  -2.34  -2.47   -35.892828    3               +4.2897
iter:  12  09:45:49  -2.14  -2.44   -35.869844    2               +4.2671
iter:  13  09:45:56  -3.65  -3.09   -35.870813    2               +4.2724
iter:  14  09:46:02  -4.05  -3.05   -35.870278    2               +4.2693
iter:  15  09:46:09  -4.03  -3.13   -35.871799    2               +4.2835
iter:  16  09:46:15  -3.32  -3.34   -35.871933    2               +4.3051
iter:  17  09:46:22  -4.58  -3.68   -35.872010    2               +4.3094
iter:  18  09:46:28  -5.18  -3.82   -35.872094    2               +4.3123
iter:  19  09:46:35  -5.73  -3.95   -35.872163    2               +4.3148
iter:  20  09:46:41  -5.70  -3.97   -35.872383    2               +4.3228
iter:  21  09:46:48  -5.61  -4.08   -35.872586    2               +4.3301
iter:  22  09:46:54  -5.77  -4.21   -35.872673    2               +4.3329
iter:  23  09:47:01  -6.69  -4.25   -35.872695    2               +4.3339
iter:  24  09:47:07  -5.76  -4.25   -35.872822    2               +4.3393
iter:  25  09:47:14  -6.34  -4.26   -35.872843    2               +4.3406
iter:  26  09:47:20  -5.88  -4.31   -35.872969    2               +4.3462
iter:  27  09:47:27  -6.54  -4.32   -35.873011    2               +4.3481
iter:  28  09:47:33  -6.61  -4.37   -35.873056    2               +4.3507
iter:  29  09:47:40  -6.41  -4.40   -35.873100    2               +4.3539
iter:  30  09:47:47  -6.45  -4.51   -35.873092    2               +4.3530
iter:  31  09:47:53  -7.42  -4.72   -35.873094    2               +4.3532

Converged after 31 iterations.

Dipole moment: (-0.000202, -0.000202, -0.000212) |e|*Ang

Total magnetic moment: 4.353170
Local magnetic moments:
   0 Fe 2.081337
   1 Fe 2.081337
   2 Cu 0.046011
   3 Cu 0.046011
   4 Cu 0.046011
   5 Cu 0.046011
   6 Cu 0.046196
   7 Cu 0.046196

Energy contributions relative to reference atoms: (reference = -339367.620247)

Kinetic:        +17.396735
Potential:      -14.082888
External:        +0.000000
XC:             -39.902901
Entropy (-ST):   -0.194533
Local:           +0.813227
--------------------------
Free energy:    -35.970361
Extrapolated:   -35.873094

Spin contamination: 0.269458 electrons
Fermi level: 11.30781

Warning: Showing only first 2 kpts
                      Up                     Down
 Kpt  Band  Eigenvalues  Occupancy  Eigenvalues  Occupancy
  0    39     10.48581    0.00400     11.32652    0.00181
  0    40     10.57844    0.00400     11.62347    0.00016
  0    41     10.58232    0.00400     11.82445    0.00002
  0    42     10.75495    0.00398     12.20954    0.00000

  1    39     10.34554    0.00400     11.62550    0.00016
  1    40     10.45422    0.00400     11.76632    0.00004
  1    41     10.95240    0.00389     12.14611    0.00000
  1    42     11.11290    0.00350     12.16269    0.00000



Forces in eV/Ang:
  0 Fe   -0.00000   -0.00000   -0.00000
  1 Fe   -0.00000   -0.00000    0.00000
  2 Cu   -0.00000   -0.00000   -0.00000
  3 Cu   -0.00000   -0.00000   -0.00000
  4 Cu   -0.00000   -0.00000   -0.00000
  5 Cu   -0.00000   -0.00000   -0.00000
  6 Cu   -0.00000   -0.00000   -0.00000
  7 Cu    0.00000    0.00000   -0.00000

Stress tensor:
    -0.319379     0.012014    -0.012158
     0.012014    -0.319379    -0.012158
    -0.012158    -0.012158    -0.319348
Writing to fecu_id11_relaxed.gpw (mode='')

System changes: positions, cell 

Initialize ...

Fe-setup:
  name: Iron
  id: 37abbd8d6c3c35915a9b583b742da910
  Z: 26
  valence: 8
  core: 18
  charge: 0.0
  file: /home/davidkl/gpaw-setups-0.9.20000/Fe.PBE.gz
  cutoffs: 1.06(comp), 2.06(filt), 2.67(core), lmax=2
  valence states:
                energy  radius
    4s(2.00)    -5.291   1.164
    4p(0.00)    -1.326   1.058
    3d(6.00)    -7.505   1.058
    *s          21.920   1.164
    *p          25.885   1.058
    *d          19.706   1.058

  Using partial waves for Fe as LCAO basis

Cu-setup:
  name: Copper
  id: f1c4d45d90492f1bbfdcb091e8418fdf
  Z: 29
  valence: 11
  core: 18
  charge: 0.0
  file: /home/davidkl/gpaw-setups-0.9.20000/Cu.PBE.gz
  cutoffs: 1.06(comp), 2.06(filt), 2.43(core), lmax=2
  valence states:
                energy  radius
    4s(1.00)    -4.609   1.164
    4p(0.00)    -0.698   1.164
    3d(10.00)    -5.039   1.058
    *s          22.603   1.164
    *p          26.513   1.164
    *d          22.172   1.058

  Using partial waves for Cu as LCAO basis

Reference energy: -339367.620247

Spin-polarized calculation.
Magnetic moment:  4.400000

Occupation numbers:
  Fermi-Dirac: width=0.1000 eV

Convergence criteria:
  Maximum total energy change: 0.0005 eV / electron
  Maximum integral of absolute density change: 0.0001 electrons
  Maximum integral of absolute eigenstate change: 4e-08 eV^2
  Maximum number of iterations: 333

Symmetries present (total): 2

  ( 1  0  0)  ( 0  1  0)
  ( 0  1  0)  ( 1  0  0)
  ( 0  0  1)  ( 0  0  1)

1000 k-points: 10 x 10 x 10 Monkhorst-Pack grid
275 k-points in the irreducible part of the Brillouin zone
       k-points in crystal coordinates                weights
   0:     0.05000000   -0.05000000    0.05000000          4/1000
   1:     0.05000000   -0.05000000    0.15000000          4/1000
   2:     0.05000000   -0.05000000    0.25000000          4/1000
   3:     0.05000000   -0.05000000    0.35000000          4/1000
   4:     0.05000000   -0.05000000    0.45000000          4/1000
   5:     0.05000000    0.05000000   -0.45000000          2/1000
   6:     0.05000000    0.05000000   -0.35000000          2/1000
   7:     0.05000000    0.05000000   -0.25000000          2/1000
   8:     0.05000000    0.05000000   -0.15000000          2/1000
   9:     0.05000000    0.05000000   -0.05000000          2/1000
          ...
 274:     0.45000000    0.45000000    0.45000000          2/1000

Wave functions: Plane wave expansion
  Cutoff energy: 500.000 eV
  Number of coefficients (min, max): 1955, 2019
  Pulay-stress correction: 0.000000 eV/Ang^3 (de/decut=0.000000)
  Using FFTW library
[...]

... initialized

Initializing position-dependent things.

Density initialized from atomic densities
Creating initial wave functions:
  68 bands from LCAO basis set

                             
                             
                             
                             
                             
           Cu                
         Cu     Cu           
             Cu              
              Cu             
           Fe     Cu         
                Fe           
                             
                             
                             
                             
                             

Positions:
   0 Fe     0.000003    0.000003    0.000003
   1 Fe     1.428319    1.428319   -1.428100
   2 Cu     1.462154   -1.445060    1.445195
   3 Cu     2.890470   -0.016744    0.017092
   4 Cu    -1.445060    1.462154    1.445195
   5 Cu    -0.016744    2.890470    0.017092
   6 Cu     0.017091    0.017091    2.890387
   7 Cu     1.445407    1.445407    1.462284

Unit cell:
           periodic     x           y           z      points  spacing
  1. axis:    yes   -2.890126    2.924302    2.890384    21     0.1958
  2. axis:    yes    2.924302   -2.890126    2.890384    21     0.1958
  3. axis:    yes    2.856632    2.856632   -2.856206    21     0.1935

  Lengths:   5.025802   5.025802   4.947586
  Angles:  109.152278 109.152278 109.782664

Effective grid spacing dv^(1/3) = 0.2185

                     log10-error:    total        iterations:
           time      wfs    density  energy       fermi  poisson  magmom
iter:   1  11:11:28  +2.00   +inf   -58.734182    35              +0.6267
iter:   2  11:11:35  +0.14   +inf   -59.186878    3               +0.6295
iter:   3  11:11:42  -0.92   +inf   -59.253889    2               +0.6301
iter:   4  11:11:51  +0.37  -1.08   -40.653694    33              +4.3108
iter:   5  11:11:59  -0.70  -1.32   -39.835664    3               +4.8736
iter:   6  11:12:07  +0.21  -1.41   -38.457888    35              +4.8227
iter:   7  11:12:15  -0.94  -1.89   -38.403186    4               +4.9643
iter:   8  11:12:23  -1.54  -1.88   -38.463357    3               +5.2936
iter:   9  11:12:31  -1.80  -2.27   -38.453363    3               +5.3475
iter:  10  11:12:40  -1.44  -2.31   -38.453673    3               +5.2208
iter:  11  11:12:48  -1.89  -2.58   -38.446467    4               +5.3521
iter:  12  11:12:56  -2.98  -2.47   -38.459638    3               +5.4150
iter:  13  11:13:04  -3.38  -2.93   -38.459030    3               +5.3961
iter:  14  11:13:12  -4.09  -3.09   -38.460320    3               +5.3902
iter:  15  11:13:20  -3.81  -3.15   -38.464661    3               +5.4380
iter:  16  11:13:28  -3.73  -3.37   -38.467791    2               +5.4771
iter:  17  11:13:37  -4.67  -3.89   -38.467930    2               +5.4777
iter:  18  11:13:45  -5.21  -3.97   -38.468077    2               +5.4782
iter:  19  11:13:53  -5.27  -4.04   -38.468014    2               +5.4776
iter:  20  11:14:01  -5.64  -4.12   -38.468188    2               +5.4807
iter:  21  11:14:09  -5.79  -4.28   -38.468333    2               +5.4836
iter:  22  11:14:18  -6.36  -4.35   -38.468323    2               +5.4836
iter:  23  11:14:26  -5.25  -4.38   -38.468551    2               +5.4894
iter:  24  11:14:34  -6.44  -4.40   -38.468587    2               +5.4907
iter:  25  11:14:42  -6.60  -4.47   -38.468619    2               +5.4918
iter:  26  11:14:50  -5.82  -4.57   -38.468703    2               +5.4949
iter:  27  11:14:58  -6.49  -4.43   -38.468723    2               +5.4958
iter:  28  11:15:06  -6.30  -4.43   -38.468673    2               +5.4940
iter:  29  11:15:15  -5.92  -4.34   -38.468741    2               +5.4965
iter:  30  11:15:23  -6.42  -4.57   -38.468715    2               +5.4954
iter:  31  11:15:31  -5.51  -4.46   -38.468830    2               +5.5004
iter:  32  11:15:39  -6.42  -4.59   -38.468834    2               +5.5004
iter:  33  11:15:47  -6.07  -4.51   -38.468773    2               +5.4977
iter:  34  11:15:56  -7.11  -4.61   -38.468762    2               +5.4974
iter:  35  11:16:04  -7.65  -4.73   -38.468758    2               +5.4972

Converged after 35 iterations.

Dipole moment: (-0.000235, -0.000235, -0.000254) |e|*Ang

Total magnetic moment: 5.497223
Local magnetic moments:
   0 Fe 2.645836
   1 Fe 2.646153
   2 Cu 0.052427
   3 Cu 0.052423
   4 Cu 0.052427
   5 Cu 0.052423
   6 Cu 0.052646
   7 Cu 0.052651

Energy contributions relative to reference atoms: (reference = -339367.620247)

Kinetic:        -60.826686
Potential:      +47.243916
External:        +0.000000
XC:             -25.396737
Entropy (-ST):   -0.218358
Local:           +0.619928
--------------------------
Free energy:    -38.577937
Extrapolated:   -38.468758

Spin contamination: 0.327125 electrons
Fermi level: 8.30748

Warning: Showing only first 2 kpts
                      Up                     Down
 Kpt  Band  Eigenvalues  Occupancy  Eigenvalues  Occupancy
  0    39      7.29061    0.00400      8.38407    0.00127
  0    40      7.65165    0.00399      8.53832    0.00036
  0    41      7.65837    0.00399      8.74564    0.00005
  0    42      7.77267    0.00398      9.17372    0.00000

  1    39      7.11465    0.00400      8.55192    0.00032
  1    40      7.16395    0.00400      8.78839    0.00003
  1    41      7.59070    0.00400      9.08921    0.00000
  1    42      7.94764    0.00389      9.13937    0.00000



Forces in eV/Ang:
  0 Fe   -0.00000   -0.00000   -0.00000
  1 Fe   -0.00000   -0.00000   -0.00000
  2 Cu   -0.00000   -0.00000   -0.00000
  3 Cu    0.00000    0.00000   -0.00000
  4 Cu   -0.00000   -0.00000   -0.00000
  5 Cu    0.00000    0.00000   -0.00000
  6 Cu   -0.00000   -0.00000    0.00000
  7 Cu    0.00000    0.00000    0.00000

Stress tensor:
     0.002631     0.001067    -0.001127
     0.001067     0.002631    -0.001127
    -0.001127    -0.001127     0.002654
Writing to fecu_id11_relaxed.gpw (mode='')

System changes: positions, cell 

Initialize ...

Fe-setup:
  name: Iron
  id: 37abbd8d6c3c35915a9b583b742da910
  Z: 26
  valence: 8
  core: 18
  charge: 0.0
  file: /home/davidkl/gpaw-setups-0.9.20000/Fe.PBE.gz
  cutoffs: 1.06(comp), 2.06(filt), 2.67(core), lmax=2
  valence states:
                energy  radius
    4s(2.00)    -5.291   1.164
    4p(0.00)    -1.326   1.058
    3d(6.00)    -7.505   1.058
    *s          21.920   1.164
    *p          25.885   1.058
    *d          19.706   1.058

  Using partial waves for Fe as LCAO basis

Cu-setup:
  name: Copper
  id: f1c4d45d90492f1bbfdcb091e8418fdf
  Z: 29
  valence: 11
  core: 18
  charge: 0.0
  file: /home/davidkl/gpaw-setups-0.9.20000/Cu.PBE.gz
  cutoffs: 1.06(comp), 2.06(filt), 2.43(core), lmax=2
  valence states:
                energy  radius
    4s(1.00)    -4.609   1.164
    4p(0.00)    -0.698   1.164
    3d(10.00)    -5.039   1.058
    *s          22.603   1.164
    *p          26.513   1.164
    *d          22.172   1.058

  Using partial waves for Cu as LCAO basis

Reference energy: -339367.620247

Spin-polarized calculation.
Magnetic moment:  4.400000

Occupation numbers:
  Fermi-Dirac: width=0.1000 eV

Convergence criteria:
  Maximum total energy change: 0.0005 eV / electron
  Maximum integral of absolute density change: 0.0001 electrons
  Maximum integral of absolute eigenstate change: 4e-08 eV^2
  Maximum number of iterations: 333

Symmetries present (total): 2

  ( 1  0  0)  ( 0  1  0)
  ( 0  1  0)  ( 1  0  0)
  ( 0  0  1)  ( 0  0  1)

1000 k-points: 10 x 10 x 10 Monkhorst-Pack grid
275 k-points in the irreducible part of the Brillouin zone
       k-points in crystal coordinates                weights
   0:     0.05000000   -0.05000000    0.05000000          4/1000
   1:     0.05000000   -0.05000000    0.15000000          4/1000
   2:     0.05000000   -0.05000000    0.25000000          4/1000
   3:     0.05000000   -0.05000000    0.35000000          4/1000
   4:     0.05000000   -0.05000000    0.45000000          4/1000
   5:     0.05000000    0.05000000   -0.45000000          2/1000
   6:     0.05000000    0.05000000   -0.35000000          2/1000
   7:     0.05000000    0.05000000   -0.25000000          2/1000
   8:     0.05000000    0.05000000   -0.15000000          2/1000
   9:     0.05000000    0.05000000   -0.05000000          2/1000
          ...
 274:     0.45000000    0.45000000    0.45000000          2/1000

Wave functions: Plane wave expansion
  Cutoff energy: 500.000 eV
  Number of coefficients (min, max): 2427, 2469
  Pulay-stress correction: 0.000000 eV/Ang^3 (de/decut=0.000000)
  Using FFTW library
  Eigensolver: None  MatrixOperator buffer_size: default value or 
                              see value of nblock in input file
Diagonalizer layout: Serial LAPACKOrthonormalizer layout: Serial LAPACK 

Davidson(niter=1, smin=None, normalize=True) 

Densities:
  Coarse grid: 21*21*21 grid
  Fine grid: 42*42*42 grid
  Total Charge: 0.000000 

Density mixing:
  Method: sum
  Backend: pulay
  Linear mixing parameter: 0.05
  Mixing with 5 old densities
  Damping of long wave oscillations: 50 

Hamiltonian:
  XC and Coulomb potentials evaluated on a 42*42*42 grid
  Using the PBE Exchange-Correlation functional
 

Memory estimate:
  Process memory now: 281.25 MiB
  Calculator: 66.46 MiB
    Density: 4.91 MiB
      Arrays: 2.47 MiB
      Localized functions: 1.73 MiB
      Mixer: 0.71 MiB
    Hamiltonian: 1.88 MiB
      Arrays: 1.84 MiB
      XC: 0.00 MiB
      Poisson: 0.00 MiB
      vbar: 0.04 MiB
    Wavefunctions: 59.68 MiB
      Arrays psit_nG: 43.55 MiB
      Eigensolver: 3.46 MiB
      Projections: 2.54 MiB
      Projectors: 6.67 MiB
      Overlap op: 2.63 MiB
      PW-descriptor: 0.83 MiB

Total number of cores used: 32
Parallelization over k-points and spin: 32

Number of atoms: 8
Number of atomic orbitals: 72
Number of bands in calculation: 68
Bands to converge: occupied states only
Number of valence electrons: 82

... initialized

Initializing position-dependent things.

Density initialized from atomic densities
Creating initial wave functions:
  68 bands from LCAO basis set

                             
                             
                             
                             
                             
           Cu                
         Cu     Cu           
             Cu              
              Cu             
           Fe     Cu         
                Fe           
                             
                             
                             
                             
                             

Positions:
   0 Fe     0.000003    0.000003    0.000003
   1 Fe     1.425971    1.425971   -1.425703
   2 Cu     1.463555   -1.444546    1.444714
   3 Cu     2.889524   -0.018577    0.019008
   4 Cu    -1.444546    1.463555    1.444714
   5 Cu    -0.018577    2.889524    0.019008
   6 Cu     0.019007    0.019007    2.889425
   7 Cu     1.444975    1.444975    1.463719

Unit cell:
           periodic     x           y           z      points  spacing
  1. axis:    yes   -2.889097    2.927105    2.889422    21     0.1959
  2. axis:    yes    2.927105   -2.889097    2.889422    21     0.1959
  3. axis:    yes    2.851936    2.851936   -2.851412    21     0.1933

  Lengths:   5.026289   5.026289   4.939396
  Angles:  109.116487 109.116487 109.816606

Effective grid spacing dv^(1/3) = 0.2184

                     log10-error:    total        iterations:
           time      wfs    density  energy       fermi  poisson  magmom
iter:   1  11:16:43  +2.00   +inf   -58.748486    35              +0.6258
iter:   2  11:16:50  +0.14   +inf   -59.201827    3               +0.6286
iter:   3  11:16:58  -0.92   +inf   -59.268946    2               +0.6292
iter:   4  11:17:06  +0.37  -1.08   -40.658831    33              +4.3011
iter:   5  11:17:14  -0.70  -1.32   -39.838549    3               +4.8636
iter:   6  11:17:22  +0.21  -1.41   -38.458435    34              +4.8171
iter:   7  11:17:31  -0.94  -1.89   -38.404152    4               +4.9570
iter:   8  11:17:39  -1.54  -1.88   -38.462165    3               +5.2815
iter:   9  11:17:47  -1.81  -2.27   -38.452502    3               +5.3342
iter:  10  11:17:55  -1.45  -2.31   -38.453334    3               +5.2154
iter:  11  11:18:04  -1.90  -2.58   -38.445978    4               +5.3398
iter:  12  11:18:12  -2.99  -2.47   -38.459463    3               +5.4045
iter:  13  11:18:20  -3.38  -2.92   -38.458859    3               +5.3865
iter:  14  11:18:28  -4.08  -3.09   -38.460166    3               +5.3805
iter:  15  11:18:36  -3.83  -3.15   -38.464395    3               +5.4267
iter:  16  11:18:45  -3.71  -3.36   -38.467574    2               +5.4660
iter:  17  11:18:53  -4.67  -3.93   -38.467725    2               +5.4670
iter:  18  11:19:01  -5.28  -4.02   -38.467837    2               +5.4674
iter:  19  11:19:09  -5.56  -4.10   -38.467843    2               +5.4676
iter:  20  11:19:17  -5.67  -4.17   -38.468008    2               +5.4707
iter:  21  11:19:25  -6.01  -4.32   -38.468129    2               +5.4733
iter:  22  11:19:34  -6.58  -4.40   -38.468159    2               +5.4741
iter:  23  11:19:42  -5.61  -4.43   -38.468324    2               +5.4785
iter:  24  11:19:50  -6.37  -4.53   -38.468401    2               +5.4810
iter:  25  11:19:58  -6.27  -4.50   -38.468457    2               +5.4830
iter:  26  11:20:06  -6.89  -4.68   -38.468466    2               +5.4835
iter:  27  11:20:14  -7.12  -4.72   -38.468490    2               +5.4843
iter:  28  11:20:23  -6.24  -4.72   -38.468552    2               +5.4867
iter:  29  11:20:31  -6.67  -4.76   -38.468587    2               +5.4884
iter:  30  11:20:39  -7.11  -4.85   -38.468608    2               +5.4893
iter:  31  11:20:47  -6.78  -4.82   -38.468589    2               +5.4886
iter:  32  11:20:55  -7.39  -4.75   -38.468595    2               +5.4888
iter:  33  11:21:04  -6.89  -4.77   -38.468610    2               +5.4896
iter:  34  11:21:12  -6.07  -4.51   -38.468555    2               +5.4871
iter:  35  11:21:20  -5.62  -4.58   -38.468638    2               +5.4910
iter:  36  11:21:28  -6.68  -4.81   -38.468628    2               +5.4906
iter:  37  11:21:36  -7.49  -4.84   -38.468633    1               +5.4908

Converged after 37 iterations.

Dipole moment: (-0.000234, -0.000234, -0.000254) |e|*Ang

Total magnetic moment: 5.490774
Local magnetic moments:
   0 Fe 2.648383
   1 Fe 2.648317
   2 Cu 0.051936
   3 Cu 0.051937
   4 Cu 0.051936
   5 Cu 0.051937
   6 Cu 0.052148
   7 Cu 0.052146

Energy contributions relative to reference atoms: (reference = -339367.620247)

Kinetic:        -60.337771
Potential:      +46.842434
External:        +0.000000
XC:             -25.481338
Entropy (-ST):   -0.217767
Local:           +0.616925
--------------------------
Free energy:    -38.577517
Extrapolated:   -38.468633

Spin contamination: 0.328356 electrons
Fermi level: 8.31994

Warning: Showing only first 2 kpts
                      Up                     Down
 Kpt  Band  Eigenvalues  Occupancy  Eigenvalues  Occupancy
  0    39      7.30225    0.00400      8.40270    0.00122
  0    40      7.66101    0.00399      8.54933    0.00037
  0    41      7.66967    0.00399      8.75529    0.00005
  0    42      7.77660    0.00398      9.18732    0.00000

  1    39      7.12560    0.00400      8.56264    0.00032
  1    40      7.17889    0.00400      8.80569    0.00003
  1    41      7.60977    0.00400      9.09824    0.00000
  1    42      7.95562    0.00390      9.15214    0.00000



Forces in eV/Ang:
  0 Fe   -0.00000   -0.00000   -0.00000
  1 Fe   -0.00000   -0.00000   -0.00000
  2 Cu   -0.00000   -0.00000   -0.00000
  3 Cu    0.00000    0.00000   -0.00000
  4 Cu   -0.00000   -0.00000   -0.00000
  5 Cu    0.00000    0.00000   -0.00000
  6 Cu   -0.00000   -0.00000    0.00000
  7 Cu    0.00000    0.00000    0.00000

Stress tensor:
     0.001534     0.000210    -0.000237
     0.000210     0.001534    -0.000237
    -0.000237    -0.000237     0.001550
Writing to fecu_id11_relaxed.gpw (mode='')

Writing to fecu_id11_relaxer_final.gpw (mode='')

Timing:                              incl.     excl.
-----------------------------------------------------------
Forces:                             98.976    98.976   1.4% ||
Hamiltonian:                         6.869     0.017   0.0% |
 Atomic:                             2.979     2.979   0.0% |
  XC Correction:                     0.000     0.000   0.0% |
 Calculate atomic Hamiltonians:      2.140     2.140   0.0% |
 Communicate:                        0.006     0.006   0.0% |
 Initialize Hamiltonian:             0.003     0.003   0.0% |
 Poisson:                            0.009     0.009   0.0% |
 XC 3D grid:                         1.715     1.715   0.0% |
LCAO initialization:               138.830     5.084   0.1% |
 LCAO eigensolver:                  34.574     0.035   0.0% |
  Calculate projections:             0.732     0.732   0.0% |
  DenseAtomicCorrection:             1.005     1.005   0.0% |
  Distribute overlap matrix:         0.026     0.026   0.0% |
  Orbital Layouts:                   2.096     2.096   0.0% |
  Potential matrix:                 27.613    27.613   0.4% |
  Sum over cells:                    3.065     3.065   0.0% |
 LCAO to grid:                      71.511    71.511   1.0% |
 Set positions (LCAO WFS):          27.662     0.009   0.0% |
  Basic WFS set positions:           0.021     0.021   0.0% |
  Basis functions set positions:     0.003     0.003   0.0% |
  TCI: Calculate S, T, P:           27.630    27.630   0.4% |
PWDescriptor:                        0.267     0.267   0.0% |
SCF-cycle:                        6560.860    66.588   0.9% |
 Davidson:                        4609.387  2184.535  29.9% |-----------|
  calc. matrices:                 1444.926  1444.926  19.7% |-------|
  diagonalize:                     350.747   350.747   4.8% |-|
  rotate_psi:                      629.179   629.179   8.6% |--|
 Density:                          368.658     0.022   0.0% |
  Atomic density matrices:           6.954     6.954   0.1% |
  Mix:                              35.261    35.261   0.5% |
  Multipole moments:                 0.309     0.309   0.0% |
  Pseudo density:                  326.112   324.327   4.4% |-|
   Symmetrize density:               1.784     1.784   0.0% |
 Hamiltonian:                      146.950     0.555   0.0% |
  Atomic:                           88.292    88.288   1.2% |
   XC Correction:                    0.004     0.004   0.0% |
  Calculate atomic Hamiltonians:     2.530     2.530   0.0% |
  Communicate:                       0.164     0.164   0.0% |
  Poisson:                           0.280     0.280   0.0% |
  XC 3D grid:                       55.129    55.129   0.8% |
 Orthonormalize:                    35.384     0.028   0.0% |
  Band Layouts:                      0.135     0.004   0.0% |
   Inverse Cholesky:                 0.131     0.131   0.0% |
  calc_s_matrix:                     4.846     4.846   0.1% |
  projections:                      25.423    25.423   0.3% |
  rotate_psi:                        4.953     4.953   0.1% |
 Subspace diag:                   1333.894     1.677   0.0% |
  Band Layouts:                     37.140     0.336   0.0% |
   Diagonalize:                     36.506    36.506   0.5% |
   Distribute results:               0.298     0.298   0.0% |
  calc_h_matrix:                   690.300   690.300   9.4% |---|
  rotate_psi:                      604.776   604.776   8.3% |--|
Set symmetry:                        1.663     1.663   0.0% |
Stress:                            426.513     0.001   0.0% |
 Stress tensor:                    426.512   426.512   5.8% |-|
Other:                              82.845    82.845   1.1% |
-----------------------------------------------------------
Total:                                      7316.824 100.0%

Memory usage: 281.25 MiB
Date: Fri Nov 30 11:22:00 2018
