
  ___ ___ ___ _ _ _  
 |   |   |_  | | | | 
 | | | | | . | | | | 
 |__ |  _|___|_____|  1.3.1b1
 |___|_|             

User:   rasmusat@c43-2.local
Date:   Fri Nov 30 09:20:04 2018
Arch:   x86_64
Pid:    46157
Python: 2.7.12
gpaw:   /home/davidkl/.local/lib/python2.7/site-packages/gpaw
_gpaw:  /home/davidkl/.local/bin/gpaw-python
ase:    /home/davidkl/.local/lib/python2.7/site-packages/ase (version 3.16.2)
numpy:  /global/hds/software/cpu/eb3/Python/2.7.12-intel-2016b/lib/python2.7/site-packages/numpy-1.11.1-py2.7-linux-x86_64.egg/numpy (version 1.11.1)
scipy:  /global/hds/software/cpu/eb3/Python/2.7.12-intel-2016b/lib/python2.7/site-packages/scipy (version 0.17.1)
units:  Angstrom and eV
cores:  32

Input parameters:
  kpts: [10 10 10]
  mode: {ecut: 500.0,
         name: pw}
  nbands: -25
  occupations: {name: fermi-dirac,
                width: 0.1}
  spinpol: True
  xc: PBE

System changes: positions, numbers, cell, pbc, initial_charges, initial_magmoms 

Initialize ...

Fe-setup:
  name: Iron
  id: 37abbd8d6c3c35915a9b583b742da910
  Z: 26
  valence: 8
  core: 18
  charge: 0.0
  file: /home/davidkl/gpaw-setups-0.9.20000/Fe.PBE.gz
  cutoffs: 1.06(comp), 2.06(filt), 2.67(core), lmax=2
  valence states:
                energy  radius
    4s(2.00)    -5.291   1.164
    4p(0.00)    -1.326   1.058
    3d(6.00)    -7.505   1.058
    *s          21.920   1.164
    *p          25.885   1.058
    *d          19.706   1.058

  Using partial waves for Fe as LCAO basis

Cu-setup:
  name: Copper
  id: f1c4d45d90492f1bbfdcb091e8418fdf
  Z: 29
  valence: 11
  core: 18
  charge: 0.0
  file: /home/davidkl/gpaw-setups-0.9.20000/Cu.PBE.gz
  cutoffs: 1.06(comp), 2.06(filt), 2.43(core), lmax=2
  valence states:
                energy  radius
    4s(1.00)    -4.609   1.164
    4p(0.00)    -0.698   1.164
    3d(10.00)    -5.039   1.058
    *s          22.603   1.164
    *p          26.513   1.164
    *d          22.172   1.058

  Using partial waves for Cu as LCAO basis

Reference energy: -328965.623005

Spin-polarized calculation.
Magnetic moment:  6.600000

Occupation numbers:
  Fermi-Dirac: width=0.1000 eV

Convergence criteria:
  Maximum total energy change: 0.0005 eV / electron
  Maximum integral of absolute density change: 0.0001 electrons
  Maximum integral of absolute eigenstate change: 4e-08 eV^2
  Maximum number of iterations: 333

Symmetries present (total): 2

  ( 1  0  0)  ( 1  0  0)
  ( 0  1  0)  ( 0  0  1)
  ( 0  0  1)  ( 0  1  0)

1000 k-points: 10 x 10 x 10 Monkhorst-Pack grid
275 k-points in the irreducible part of the Brillouin zone
       k-points in crystal coordinates                weights
   0:     0.05000000   -0.45000000   -0.45000000          2/1000
   1:     0.05000000   -0.35000000   -0.45000000          4/1000
   2:     0.05000000   -0.35000000   -0.35000000          2/1000
   3:     0.05000000   -0.25000000   -0.45000000          4/1000
   4:     0.05000000   -0.25000000   -0.35000000          4/1000
   5:     0.05000000   -0.25000000   -0.25000000          2/1000
   6:     0.05000000   -0.15000000   -0.45000000          4/1000
   7:     0.05000000   -0.15000000   -0.35000000          4/1000
   8:     0.05000000   -0.15000000   -0.25000000          4/1000
   9:     0.05000000   -0.15000000   -0.15000000          2/1000
          ...
 274:     0.45000000    0.45000000    0.45000000          2/1000

Wave functions: Plane wave expansion
  Cutoff energy: 500.000 eV
  Number of coefficients (min, max): 1769, 1802
  Pulay-stress correction: 0.000000 eV/Ang^3 (de/decut=0.000000)
  Using FFTW library
  Eigensolver: None  MatrixOperator buffer_size: default value or 
                              see value of nblock in input file
Diagonalizer layout: Serial LAPACKOrthonormalizer layout: Serial LAPACK 

Davidson(niter=1, smin=None, normalize=True) 

Densities:
  Coarse grid: 20*20*20 grid
  Fine grid: 40*40*40 grid
  Total Charge: 0.000000 

Density mixing:
  Method: sum
  Backend: pulay
  Linear mixing parameter: 0.05
  Mixing with 5 old densities
  Damping of long wave oscillations: 50 

Hamiltonian:
  XC and Coulomb potentials evaluated on a 40*40*40 grid
  Using the PBE Exchange-Correlation functional
 

Memory estimate:
  Process memory now: 59.18 MiB
  Calculator: 50.37 MiB
    Density: 4.25 MiB
      Arrays: 2.14 MiB
      Localized functions: 1.51 MiB
      Mixer: 0.61 MiB
    Hamiltonian: 1.62 MiB
      Arrays: 1.59 MiB
      XC: 0.00 MiB
      Poisson: 0.00 MiB
      vbar: 0.04 MiB
    Wavefunctions: 44.49 MiB
      Arrays psit_nG: 31.79 MiB
      Eigensolver: 2.71 MiB
      Projections: 2.54 MiB
      Projectors: 4.86 MiB
      Overlap op: 1.94 MiB
      PW-descriptor: 0.65 MiB

Total number of cores used: 32
Parallelization over k-points and spin: 32

Number of atoms: 8
Number of atomic orbitals: 72
Number of bands in calculation: 68
Bands to converge: occupied states only
Number of valence electrons: 79

... initialized

Initializing position-dependent things.

Density initialized from atomic densities
Creating initial wave functions:
  68 bands from LCAO basis set

                            
                            
                            
                            
                            
           Cu               
         Cu    Cu           
             Cu             
             Fe             
           Fe    Cu         
               Fe           
                            
                            
                            
                            
                            

Positions:
   0 Fe     0.000003    0.000003    0.000003
   1 Fe     1.300003    1.300003   -1.299997
   2 Fe     1.300003   -1.299997    1.300003
   3 Cu     2.600003    0.000003    0.000003
   4 Cu    -1.299997    1.300003    1.300003
   5 Cu     0.000003    2.600003    0.000003
   6 Cu     0.000003    0.000003    2.600003
   7 Cu     1.300003    1.300003    1.300003

Unit cell:
           periodic     x           y           z      points  spacing
  1. axis:    yes   -2.600000    2.600000    2.600000    20     0.1838
  2. axis:    yes    2.600000   -2.600000    2.600000    20     0.1838
  3. axis:    yes    2.600000    2.600000   -2.600000    20     0.1838

  Lengths:   4.503332   4.503332   4.503332
  Angles:  109.471221 109.471221 109.471221

Effective grid spacing dv^(1/3) = 0.2064

                     log10-error:    total        iterations:
           time      wfs    density  energy       fermi  poisson  magmom
iter:   1  09:20:19  +2.06   +inf   -62.597215    3               +1.8313
iter:   2  09:20:25  +0.25   +inf   -63.217414    3               +1.8361
iter:   3  09:20:30  -0.75   +inf   -63.309464    2               +1.8372
iter:   4  09:20:36  +0.41  -1.09   -40.621114    33              +5.0327
iter:   5  09:20:42  -0.62  -1.34   -39.297693    4               +5.3054
iter:   6  09:20:48  +0.22  -1.43   -38.003884    34              +5.2265
iter:   7  09:20:54  -1.19  -1.89   -37.779617    4               +5.4053
iter:   8  09:21:00  -0.73  -2.00   -37.734423    3               +5.5059
iter:   9  09:21:06  -0.65  -2.06   -38.206241    3               +5.4697
iter:  10  09:21:12  -0.65  -2.14   -37.543363    3               +5.3874
iter:  11  09:21:18  -1.85  -2.45   -37.576587    3               +5.4359
iter:  12  09:21:24  -2.63  -2.48   -37.567504    3               +5.4279
iter:  13  09:21:30  -1.84  -2.55   -37.556100    3               +5.4026
iter:  14  09:21:36  -2.69  -2.92   -37.552456    3               +5.4019
iter:  15  09:21:43  -2.95  -3.15   -37.550672    2               +5.4045
iter:  16  09:21:49  -3.37  -3.20   -37.550201    2               +5.4037
iter:  17  09:21:55  -3.09  -3.26   -37.551558    3               +5.3901
iter:  18  09:22:01  -4.04  -3.53   -37.551004    2               +5.3884
iter:  19  09:22:07  -3.34  -3.68   -37.550113    3               +5.3884
iter:  20  09:22:13  -5.05  -3.91   -37.550120    1               +5.3877
iter:  21  09:22:19  -5.26  -3.92   -37.550111    2               +5.3863
iter:  22  09:22:25  -5.52  -4.05   -37.550137    2               +5.3839
iter:  23  09:22:31  -4.68  -4.21   -37.550195    2               +5.3834
iter:  24  09:22:37  -6.40  -4.27   -37.550204    2               +5.3829
iter:  25  09:22:43  -4.93  -4.30   -37.550167    2               +5.3812
iter:  26  09:22:49  -5.06  -4.54   -37.550221    2               +5.3794
iter:  27  09:22:55  -5.80  -4.61   -37.550208    2               +5.3784
iter:  28  09:23:01  -6.12  -4.94   -37.550199    2               +5.3779
iter:  29  09:23:07  -7.21  -5.08   -37.550199    2               +5.3776
iter:  30  09:23:13  -7.56  -5.11   -37.550201    1               +5.3773

Converged after 30 iterations.

Dipole moment: (-0.000189, -0.000196, -0.000196) |e|*Ang

Total magnetic moment: 5.377291
Local magnetic moments:
   0 Fe 1.794786
   1 Fe 1.716996
   2 Fe 1.716996
   3 Cu 0.044881
   4 Cu 0.036342
   5 Cu 0.071317
   6 Cu 0.071317
   7 Cu 0.036448

Energy contributions relative to reference atoms: (reference = -328965.623005)

Kinetic:       +104.577650
Potential:      -83.811404
External:        +0.000000
XC:             -59.162967
Entropy (-ST):   -0.189147
Local:           +0.941094
--------------------------
Free energy:    -37.644774
Extrapolated:   -37.550201

Spin contamination: 0.272085 electrons
Fermi level: 13.18089

Warning: Showing only first 2 kpts
                      Up                     Down
 Kpt  Band  Eigenvalues  Occupancy  Eigenvalues  Occupancy
  0    37     11.89719    0.00200     13.26758    0.00059
  0    38     12.01548    0.00200     13.43290    0.00015
  0    39     12.08755    0.00200     13.47640    0.00010
  0    40     12.72485    0.00198     14.04798    0.00000

  1    37     11.97467    0.00400     13.17159    0.00209
  1    38     12.01199    0.00400     13.52352    0.00013
  1    39     12.38576    0.00400     13.67705    0.00003
  1    40     12.64183    0.00398     13.97466    0.00000



Forces in eV/Ang:
  0 Fe   -0.00000   -0.00000   -0.00000
  1 Fe   -0.00000   -0.00000   -0.00000
  2 Fe   -0.00000   -0.00000   -0.00000
  3 Cu   -0.00000   -0.00000   -0.00000
  4 Cu   -0.00000   -0.00000   -0.00000
  5 Cu   -0.00000   -0.00000   -0.00000
  6 Cu   -0.00000   -0.00000   -0.00000
  7 Cu   -0.00000   -0.00000   -0.00000

Stress tensor:
    -0.597396    -0.000117    -0.000117
    -0.000117    -0.622221    -0.042752
    -0.000117    -0.042752    -0.622221
Writing to fecu_id10_relaxed.gpw (mode='')

System changes: positions, cell 

Initialize ...

Fe-setup:
  name: Iron
  id: 37abbd8d6c3c35915a9b583b742da910
  Z: 26
  valence: 8
  core: 18
  charge: 0.0
  file: /home/davidkl/gpaw-setups-0.9.20000/Fe.PBE.gz
  cutoffs: 1.06(comp), 2.06(filt), 2.67(core), lmax=2
  valence states:
                energy  radius
    4s(2.00)    -5.291   1.164
    4p(0.00)    -1.326   1.058
    3d(6.00)    -7.505   1.058
    *s          21.920   1.164
    *p          25.885   1.058
    *d          19.706   1.058

  Using partial waves for Fe as LCAO basis

Cu-setup:
  name: Copper
  id: f1c4d45d90492f1bbfdcb091e8418fdf
  Z: 29
  valence: 11
  core: 18
  charge: 0.0
  file: /home/davidkl/gpaw-setups-0.9.20000/Cu.PBE.gz
  cutoffs: 1.06(comp), 2.06(filt), 2.43(core), lmax=2
  valence states:
                energy  radius
    4s(1.00)    -4.609   1.164
    4p(0.00)    -0.698   1.164
    3d(10.00)    -5.039   1.058
    *s          22.603   1.164
    *p          26.513   1.164
    *d          22.172   1.058

  Using partial waves for Cu as LCAO basis

Reference energy: -328965.623005

Spin-polarized calculation.
Magnetic moment:  6.600000

Occupation numbers:
  Fermi-Dirac: width=0.1000 eV

Convergence criteria:
  Maximum total energy change: 0.0005 eV / electron
  Maximum integral of absolute density change: 0.0001 electrons
  Maximum integral of absolute eigenstate change: 4e-08 eV^2
  Maximum number of iterations: 333

Symmetries present (total): 2

  ( 1  0  0)  ( 1  0  0)
  ( 0  1  0)  ( 0  0  1)
  ( 0  0  1)  ( 0  1  0)

1000 k-points: 10 x 10 x 10 Monkhorst-Pack grid
275 k-points in the irreducible part of the Brillouin zone
       k-points in crystal coordinates                weights
   0:     0.05000000   -0.45000000   -0.45000000          2/1000
   1:     0.05000000   -0.35000000   -0.45000000          4/1000
   2:     0.05000000   -0.35000000   -0.35000000          2/1000
   3:     0.05000000   -0.25000000   -0.45000000          4/1000
   4:     0.05000000   -0.25000000   -0.35000000          4/1000
   5:     0.05000000   -0.25000000   -0.25000000          2/1000
   6:     0.05000000   -0.15000000   -0.45000000          4/1000
   7:     0.05000000   -0.15000000   -0.35000000          4/1000
   8:     0.05000000   -0.15000000   -0.25000000          4/1000
   9:     0.05000000   -0.15000000   -0.15000000          2/1000
          ...
 274:     0.45000000    0.45000000    0.45000000          2/1000

Wave functions: Plane wave expansion
  Cutoff energy: 500.000 eV
  Number of coefficients (min, max): 1794, 1846
  Pulay-stress correction: 0.000000 eV/Ang^3 (de/decut=0.000000)
  Using FFTW library
  Eigensolver: None  MatrixOperator buffer_size: default value or 
                              see value of nblock in input file
Diagonalizer layout: Serial LAPACKOrthonormalizer layout: Serial LAPACK 

Davidson(niter=1, smin=None, normalize=True) 

Densities:
  Coarse grid: 20*20*20 grid
  Fine grid: 40*40*40 grid
  Total Charge: 0.000000 

Density mixing:
  Method: sum
  Backend: pulay
  Linear mixing parameter: 0.05
  Mixing with 5 old densities
  Damping of long wave oscillations: 50 

Hamiltonian:
  XC and Coulomb potentials evaluated on a 40*40*40 grid
  Using the PBE Exchange-Correlation functional
 

Memory estimate:
  Process memory now: 236.98 MiB
  Calculator: 51.32 MiB
    Density: 4.25 MiB
      Arrays: 2.14 MiB
      Localized functions: 1.51 MiB
      Mixer: 0.61 MiB
    Hamiltonian: 1.62 MiB
      Arrays: 1.59 MiB
      XC: 0.00 MiB
      Poisson: 0.00 MiB
      vbar: 0.04 MiB
    Wavefunctions: 45.44 MiB
      Arrays psit_nG: 32.56 MiB
      Eigensolver: 2.76 MiB
      Projections: 2.54 MiB
      Projectors: 4.93 MiB
      Overlap op: 1.99 MiB
      PW-descriptor: 0.66 MiB

Total number of cores used: 32
Parallelization over k-points and spin: 32

Number of atoms: 8
Number of atomic orbitals: 72
Number of bands in calculation: 68
Bands to converge: occupied states only
Number of valence electrons: 79

... initialized

Initializing position-dependent things.

Density initialized from atomic densities
Creating initial wave functions:
  68 bands from LCAO basis set

                            
                            
                            
                            
                            
           Cu               
         Cu    Cu           
             Cu             
             Fe             
           Fe    Cu         
               Fe           
                            
                            
                            
                            
                            

Positions:
   0 Fe     0.000003    0.000003    0.000003
   1 Fe     1.306229    1.306043   -1.306035
   2 Fe     1.306229   -1.306035    1.306043
   3 Cu     2.612455    0.000005    0.000005
   4 Cu    -1.306221    1.306932    1.306932
   5 Cu     0.000005    2.612972    0.000894
   6 Cu     0.000005    0.000894    2.612972
   7 Cu     1.306231    1.306934    1.306934

Unit cell:
           periodic     x           y           z      points  spacing
  1. axis:    yes   -2.612447    2.613858    2.613858    20     0.1848
  2. axis:    yes    2.612452   -2.612076    2.612081    20     0.1847
  3. axis:    yes    2.612452    2.612081   -2.612076    20     0.1847

  Lengths:   4.526521   4.524468   4.524468
  Angles:  109.463493 109.465822 109.465822

Effective grid spacing dv^(1/3) = 0.2074

                     log10-error:    total        iterations:
           time      wfs    density  energy       fermi  poisson  magmom
iter:   1  09:23:45  +2.05   +inf   -63.203291    36              +1.8207
iter:   2  09:23:50  +0.25   +inf   -63.826818    3               +1.8257
iter:   3  09:23:56  -0.76   +inf   -63.918823    2               +1.8268
iter:   4  09:24:02  +0.42  -1.09   -41.157863    33              +5.0878
iter:   5  09:24:08  -0.64  -1.34   -39.918820    4               +5.3817
iter:   6  09:24:14  +0.22  -1.43   -38.583892    34              +5.3377
iter:   7  09:24:20  -1.20  -1.89   -38.386697    4               +5.5044
iter:   8  09:24:26  -0.75  -1.99   -38.360727    3               +5.5906
iter:   9  09:24:33  -0.71  -2.07   -38.753459    3               +5.5662
iter:  10  09:24:39  -0.73  -2.18   -38.176608    3               +5.5040
iter:  11  09:24:45  -1.92  -2.45   -38.207826    3               +5.5487
iter:  12  09:24:51  -2.61  -2.48   -38.194480    3               +5.5411
iter:  13  09:24:57  -1.91  -2.56   -38.185959    3               +5.5256
iter:  14  09:25:03  -2.66  -2.89   -38.182035    3               +5.5274
iter:  15  09:25:09  -2.93  -3.14   -38.180450    3               +5.5313
iter:  16  09:25:15  -3.48  -3.21   -38.180501    2               +5.5317
iter:  17  09:25:21  -3.48  -3.27   -38.180905    2               +5.5247
iter:  18  09:25:28  -4.26  -3.47   -38.180698    2               +5.5238
iter:  19  09:25:34  -3.52  -3.56   -38.180483    3               +5.5243
iter:  20  09:25:40  -4.65  -3.68   -38.180344    2               +5.5241
iter:  21  09:25:46  -4.72  -3.75   -38.180269    2               +5.5235
iter:  22  09:25:52  -4.64  -3.83   -38.180332    2               +5.5218
iter:  23  09:25:58  -5.45  -4.03   -38.180335    2               +5.5212
iter:  24  09:26:04  -5.29  -4.12   -38.180337    2               +5.5211
iter:  25  09:26:10  -5.82  -4.22   -38.180348    2               +5.5210
iter:  26  09:26:16  -6.71  -4.27   -38.180348    2               +5.5208
iter:  27  09:26:23  -4.87  -4.30   -38.180311    2               +5.5202
iter:  28  09:26:29  -5.60  -4.62   -38.180318    2               +5.5199
iter:  29  09:26:35  -6.15  -4.87   -38.180324    2               +5.5196
iter:  30  09:26:41  -6.97  -5.00   -38.180328    2               +5.5195
iter:  31  09:26:47  -7.69  -5.04   -38.180331    2               +5.5194

Converged after 31 iterations.

Dipole moment: (-0.000191, -0.000199, -0.000199) |e|*Ang

Total magnetic moment: 5.519369
Local magnetic moments:
   0 Fe 1.832533
   1 Fe 1.769630
   2 Fe 1.769630
   3 Cu 0.045963
   4 Cu 0.036480
   5 Cu 0.072321
   6 Cu 0.072321
   7 Cu 0.036596

Energy contributions relative to reference atoms: (reference = -328965.623005)

Kinetic:        +93.530307
Potential:      -74.973053
External:        +0.000000
XC:             -57.579094
Entropy (-ST):   -0.190174
Local:           +0.936596
--------------------------
Free energy:    -38.275417
Extrapolated:   -38.180331

Spin contamination: 0.283355 electrons
Fermi level: 12.92572

Warning: Showing only first 2 kpts
                      Up                     Down
 Kpt  Band  Eigenvalues  Occupancy  Eigenvalues  Occupancy
  0    37     11.62609    0.00200     13.03725    0.00049
  0    38     11.74856    0.00200     13.20450    0.00012
  0    39     11.81438    0.00200     13.23671    0.00009
  0    40     12.42833    0.00199     13.79731    0.00000

  1    37     11.70662    0.00400     12.93807    0.00188
  1    38     11.74067    0.00400     13.28951    0.00010
  1    39     12.10284    0.00400     13.43771    0.00002
  1    40     12.35304    0.00399     13.72826    0.00000



Forces in eV/Ang:
  0 Fe   -0.00000   -0.00000   -0.00000
  1 Fe   -0.00000   -0.00000   -0.00000
  2 Fe   -0.00000   -0.00000   -0.00000
  3 Cu   -0.00000   -0.00000   -0.00000
  4 Cu   -0.00000   -0.00000   -0.00000
  5 Cu   -0.00000   -0.00000   -0.00000
  6 Cu   -0.00000   -0.00000   -0.00000
  7 Cu   -0.00000   -0.00000   -0.00000

Stress tensor:
    -0.547979    -0.000108    -0.000108
    -0.000108    -0.571932    -0.039588
    -0.000108    -0.039588    -0.571932
Writing to fecu_id10_relaxed.gpw (mode='')

System changes: positions, cell 

Initialize ...

Fe-setup:
  name: Iron
  id: 37abbd8d6c3c35915a9b583b742da910
  Z: 26
  valence: 8
  core: 18
  charge: 0.0
  file: /home/davidkl/gpaw-setups-0.9.20000/Fe.PBE.gz
  cutoffs: 1.06(comp), 2.06(filt), 2.67(core), lmax=2
  valence states:
                energy  radius
    4s(2.00)    -5.291   1.164
    4p(0.00)    -1.326   1.058
    3d(6.00)    -7.505   1.058
    *s          21.920   1.164
    *p          25.885   1.058
    *d          19.706   1.058

  Using partial waves for Fe as LCAO basis

Cu-setup:
  name: Copper
  id: f1c4d45d90492f1bbfdcb091e8418fdf
  Z: 29
  valence: 11
  core: 18
  charge: 0.0
  file: /home/davidkl/gpaw-setups-0.9.20000/Cu.PBE.gz
  cutoffs: 1.06(comp), 2.06(filt), 2.43(core), lmax=2
  valence states:
                energy  radius
    4s(1.00)    -4.609   1.164
    4p(0.00)    -0.698   1.164
    3d(10.00)    -5.039   1.058
    *s          22.603   1.164
    *p          26.513   1.164
    *d          22.172   1.058

  Using partial waves for Cu as LCAO basis

Reference energy: -328965.623005

Spin-polarized calculation.
Magnetic moment:  6.600000

Occupation numbers:
  Fermi-Dirac: width=0.1000 eV

Convergence criteria:
  Maximum total energy change: 0.0005 eV / electron
  Maximum integral of absolute density change: 0.0001 electrons
  Maximum integral of absolute eigenstate change: 4e-08 eV^2
  Maximum number of iterations: 333

Symmetries present (total): 2

  ( 1  0  0)  ( 1  0  0)
  ( 0  1  0)  ( 0  0  1)
  ( 0  0  1)  ( 0  1  0)

1000 k-points: 10 x 10 x 10 Monkhorst-Pack grid
275 k-points in the irreducible part of the Brillouin zone
       k-points in crystal coordinates                weights
   0:     0.05000000   -0.45000000   -0.45000000          2/1000
   1:     0.05000000   -0.35000000   -0.45000000          4/1000
   2:     0.05000000   -0.35000000   -0.35000000          2/1000
   3:     0.05000000   -0.25000000   -0.45000000          4/1000
   4:     0.05000000   -0.25000000   -0.35000000          4/1000
   5:     0.05000000   -0.25000000   -0.25000000          2/1000
   6:     0.05000000   -0.15000000   -0.45000000          4/1000
   7:     0.05000000   -0.15000000   -0.35000000          4/1000
   8:     0.05000000   -0.15000000   -0.25000000          4/1000
   9:     0.05000000   -0.15000000   -0.15000000          2/1000
          ...
 274:     0.45000000    0.45000000    0.45000000          2/1000

Wave functions: Plane wave expansion
  Cutoff energy: 500.000 eV
  Number of coefficients (min, max): 1822, 1878
  Pulay-stress correction: 0.000000 eV/Ang^3 (de/decut=0.000000)
  Using FFTW library
  Eigensolver: None  MatrixOperator buffer_size: default value or 
                              see value of nblock in input file
Diagonalizer layout: Serial LAPACKOrthonormalizer layout: Serial LAPACK 

Davidson(niter=1, smin=None, normalize=True) 

Densities:
  Coarse grid: 20*20*20 grid
  Fine grid: 40*40*40 grid
  Total Charge: 0.000000 

Density mixing:
  Method: sum
  Backend: pulay
  Linear mixing parameter: 0.05
  Mixing with 5 old densities
  Damping of long wave oscillations: 50 

Hamiltonian:
  XC and Coulomb potentials evaluated on a 40*40*40 grid
  Using the PBE Exchange-Correlation functional
 

Memory estimate:
  Process memory now: 242.22 MiB
  Calculator: 52.04 MiB
    Density: 4.25 MiB
      Arrays: 2.14 MiB
      Localized functions: 1.51 MiB
      Mixer: 0.61 MiB
    Hamiltonian: 1.62 MiB
      Arrays: 1.59 MiB
      XC: 0.00 MiB
      Poisson: 0.00 MiB
      vbar: 0.04 MiB
    Wavefunctions: 46.16 MiB
      Arrays psit_nG: 33.13 MiB
      Eigensolver: 2.80 MiB
      Projections: 2.54 MiB
      Projectors: 5.01 MiB
      Overlap op: 2.02 MiB
      PW-descriptor: 0.66 MiB

Total number of cores used: 32
Parallelization over k-points and spin: 32

Number of atoms: 8
Number of atomic orbitals: 72
Number of bands in calculation: 68
Bands to converge: occupied states only
Number of valence electrons: 79

... initialized

Initializing position-dependent things.

Density initialized from atomic densities
Creating initial wave functions:
  68 bands from LCAO basis set

                            
                            
                            
                            
                            
           Cu               
         Cu    Cu           
             Cu             
             Fe             
           Fe    Cu         
               Fe           
                            
                            
                            
                            
                            

Positions:
   0 Fe     0.000003    0.000003    0.000003
   1 Fe     1.312432    1.312081   -1.312071
   2 Fe     1.312432   -1.312071    1.312081
   3 Cu     2.624861    0.000008    0.000008
   4 Cu    -1.312422    1.313863    1.313863
   5 Cu     0.000008    2.625941    0.001789
   6 Cu     0.000008    0.001789    2.625941
   7 Cu     1.312437    1.313868    1.313868

Unit cell:
           periodic     x           y           z      points  spacing
  1. axis:    yes   -2.624849    2.627720    2.627720    20     0.1858
  2. axis:    yes    2.624859   -2.624147    2.624157    20     0.1856
  3. axis:    yes    2.624859    2.624157   -2.624147    20     0.1856

  Lengths:   4.549688   4.545573   4.545573
  Angles:  109.456675 109.460015 109.460015

Effective grid spacing dv^(1/3) = 0.2084

                     log10-error:    total        iterations:
           time      wfs    density  energy       fermi  poisson  magmom
iter:   1  09:27:19  +2.05   +inf   -63.761810    33              +1.8094
iter:   2  09:27:25  +0.25   +inf   -64.386302    3               +1.8146
iter:   3  09:27:30  -0.76   +inf   -64.477978    2               +1.8157
iter:   4  09:27:36  +0.43  -1.08   -41.650459    33              +5.1426
iter:   5  09:27:43  -0.65  -1.34   -40.491474    4               +5.4573
iter:   6  09:27:49  +0.22  -1.43   -39.121055    33              +5.4469
iter:   7  09:27:55  -1.22  -1.89   -38.949849    4               +5.6006
iter:   8  09:28:01  -0.78  -1.99   -38.937040    3               +5.6743
iter:   9  09:28:07  -0.77  -2.07   -39.258827    3               +5.6623
iter:  10  09:28:14  -0.81  -2.21   -38.764510    3               +5.6181
iter:  11  09:28:20  -1.98  -2.45   -38.792212    3               +5.6591
iter:  12  09:28:26  -2.58  -2.48   -38.776058    3               +5.6529
iter:  13  09:28:32  -1.97  -2.56   -38.770066    3               +5.6466
iter:  14  09:28:38  -2.65  -2.87   -38.766042    3               +5.6512
iter:  15  09:28:45  -2.91  -3.12   -38.764695    3               +5.6566
iter:  16  09:28:51  -3.57  -3.21   -38.765106    2               +5.6580
iter:  17  09:28:57  -3.89  -3.27   -38.765230    2               +5.6557
iter:  18  09:29:03  -4.12  -3.38   -38.765191    2               +5.6558
iter:  19  09:29:09  -3.59  -3.43   -38.765537    2               +5.6566
iter:  20  09:29:16  -4.24  -3.53   -38.765075    3               +5.6586
iter:  21  09:29:22  -4.15  -3.75   -38.764837    2               +5.6581
iter:  22  09:29:28  -4.74  -3.92   -38.764849    2               +5.6574
iter:  23  09:29:34  -5.15  -4.10   -38.764849    2               +5.6577
iter:  24  09:29:40  -4.72  -4.28   -38.764886    2               +5.6582
iter:  25  09:29:47  -6.62  -4.63   -38.764890    2               +5.6583
iter:  26  09:29:53  -6.37  -4.66   -38.764900    2               +5.6585
iter:  27  09:29:59  -6.57  -4.77   -38.764926    1               +5.6589
iter:  28  09:30:05  -5.80  -4.97   -38.764953    2               +5.6591
iter:  29  09:30:11  -7.32  -5.02   -38.764952    2               +5.6591
iter:  30  09:30:17  -7.16  -5.01   -38.764947    2               +5.6591
iter:  31  09:30:24  -7.87  -5.03   -38.764946    2               +5.6591

Converged after 31 iterations.

Dipole moment: (-0.000193, -0.000201, -0.000201) |e|*Ang

Total magnetic moment: 5.659085
Local magnetic moments:
   0 Fe 1.870104
   1 Fe 1.821144
   2 Fe 1.821144
   3 Cu 0.047047
   4 Cu 0.036652
   5 Cu 0.073161
   6 Cu 0.073161
   7 Cu 0.036776

Energy contributions relative to reference atoms: (reference = -328965.623005)

Kinetic:        +83.251505
Potential:      -66.771702
External:        +0.000000
XC:             -56.066691
Entropy (-ST):   -0.191201
Local:           +0.917542
--------------------------
Free energy:    -38.860547
Extrapolated:   -38.764946

Spin contamination: 0.294445 electrons
Fermi level: 12.67668

Warning: Showing only first 2 kpts
                      Up                     Down
 Kpt  Band  Eigenvalues  Occupancy  Eigenvalues  Occupancy
  0    37     11.36059    0.00200     12.81169    0.00041
  0    38     11.48722    0.00200     12.98094    0.00009
  0    39     11.54751    0.00200     13.00242    0.00007
  0    40     12.13774    0.00199     13.55215    0.00000

  1    37     11.44401    0.00400     12.71047    0.00167
  1    38     11.47538    0.00400     13.06056    0.00008
  1    39     11.82558    0.00400     13.20376    0.00002
  1    40     12.06940    0.00399     13.48735    0.00000



Forces in eV/Ang:
  0 Fe   -0.00000   -0.00000   -0.00000
  1 Fe   -0.00000   -0.00000   -0.00000
  2 Fe   -0.00000   -0.00000   -0.00000
  3 Cu   -0.00000   -0.00000   -0.00000
  4 Cu   -0.00000   -0.00000   -0.00000
  5 Cu   -0.00000   -0.00000   -0.00000
  6 Cu   -0.00000   -0.00000   -0.00000
  7 Cu   -0.00000   -0.00000   -0.00000

Stress tensor:
    -0.501707    -0.000100    -0.000100
    -0.000100    -0.524794    -0.036631
    -0.000100    -0.036631    -0.524794
Writing to fecu_id10_relaxed.gpw (mode='')

System changes: positions, cell 

Initialize ...

Fe-setup:
  name: Iron
  id: 37abbd8d6c3c35915a9b583b742da910
  Z: 26
  valence: 8
  core: 18
  charge: 0.0
  file: /home/davidkl/gpaw-setups-0.9.20000/Fe.PBE.gz
  cutoffs: 1.06(comp), 2.06(filt), 2.67(core), lmax=2
  valence states:
                energy  radius
    4s(2.00)    -5.291   1.164
    4p(0.00)    -1.326   1.058
    3d(6.00)    -7.505   1.058
    *s          21.920   1.164
    *p          25.885   1.058
    *d          19.706   1.058

  Using partial waves for Fe as LCAO basis

Cu-setup:
  name: Copper
  id: f1c4d45d90492f1bbfdcb091e8418fdf
  Z: 29
  valence: 11
  core: 18
  charge: 0.0
  file: /home/davidkl/gpaw-setups-0.9.20000/Cu.PBE.gz
  cutoffs: 1.06(comp), 2.06(filt), 2.43(core), lmax=2
  valence states:
                energy  radius
    4s(1.00)    -4.609   1.164
    4p(0.00)    -0.698   1.164
    3d(10.00)    -5.039   1.058
    *s          22.603   1.164
    *p          26.513   1.164
    *d          22.172   1.058

  Using partial waves for Cu as LCAO basis

Reference energy: -328965.623005

Spin-polarized calculation.
Magnetic moment:  6.600000

Occupation numbers:
  Fermi-Dirac: width=0.1000 eV

Convergence criteria:
  Maximum total energy change: 0.0005 eV / electron
  Maximum integral of absolute density change: 0.0001 electrons
  Maximum integral of absolute eigenstate change: 4e-08 eV^2
  Maximum number of iterations: 333

Symmetries present (total): 2

  ( 1  0  0)  ( 1  0  0)
  ( 0  1  0)  ( 0  0  1)
  ( 0  0  1)  ( 0  1  0)

1000 k-points: 10 x 10 x 10 Monkhorst-Pack grid
275 k-points in the irreducible part of the Brillouin zone
       k-points in crystal coordinates                weights
   0:     0.05000000   -0.45000000   -0.45000000          2/1000
   1:     0.05000000   -0.35000000   -0.45000000          4/1000
   2:     0.05000000   -0.35000000   -0.35000000          2/1000
   3:     0.05000000   -0.25000000   -0.45000000          4/1000
   4:     0.05000000   -0.25000000   -0.35000000          4/1000
   5:     0.05000000   -0.25000000   -0.25000000          2/1000
   6:     0.05000000   -0.15000000   -0.45000000          4/1000
   7:     0.05000000   -0.15000000   -0.35000000          4/1000
   8:     0.05000000   -0.15000000   -0.25000000          4/1000
   9:     0.05000000   -0.15000000   -0.15000000          2/1000
          ...
 274:     0.45000000    0.45000000    0.45000000          2/1000

Wave functions: Plane wave expansion
  Cutoff energy: 500.000 eV
  Number of coefficients (min, max): 1832, 1890
  Pulay-stress correction: 0.000000 eV/Ang^3 (de/decut=0.000000)
  Using FFTW library
  Eigensolver: None  MatrixOperator buffer_size: default value or 
                              see value of nblock in input file
Diagonalizer layout: Serial LAPACKOrthonormalizer layout: Serial LAPACK 

Davidson(niter=1, smin=None, normalize=True) 

Densities:
  Coarse grid: 20*20*20 grid
  Fine grid: 40*40*40 grid
  Total Charge: 0.000000 

Density mixing:
  Method: sum
  Backend: pulay
  Linear mixing parameter: 0.05
  Mixing with 5 old densities
  Damping of long wave oscillations: 50 

Hamiltonian:
  XC and Coulomb potentials evaluated on a 40*40*40 grid
  Using the PBE Exchange-Correlation functional
 

Memory estimate:
  Process memory now: 246.56 MiB
  Calculator: 52.35 MiB
    Density: 4.25 MiB
      Arrays: 2.14 MiB
      Localized functions: 1.51 MiB
      Mixer: 0.61 MiB
    Hamiltonian: 1.62 MiB
      Arrays: 1.59 MiB
      XC: 0.00 MiB
      Poisson: 0.00 MiB
      vbar: 0.04 MiB
    Wavefunctions: 46.47 MiB
      Arrays psit_nG: 33.34 MiB
      Eigensolver: 2.81 MiB
      Projections: 2.54 MiB
      Projectors: 5.08 MiB
      Overlap op: 2.03 MiB
      PW-descriptor: 0.67 MiB

Total number of cores used: 32
Parallelization over k-points and spin: 32

Number of atoms: 8
Number of atomic orbitals: 72
Number of bands in calculation: 68
Bands to converge: occupied states only
Number of valence electrons: 79

... initialized

Initializing position-dependent things.

Density initialized from atomic densities
Creating initial wave functions:
  68 bands from LCAO basis set

                             
                             
                             
                             
                             
           Cu                
         Cu     Cu           
             Cu              
              Fe             
           Fe     Cu         
                Fe           
                             
                             
                             
                             
                             

Positions:
   0 Fe     0.000003    0.000003    0.000003
   1 Fe     1.318613    1.318116   -1.318104
   2 Fe     1.318613   -1.318104    1.318116
   3 Cu     2.637223    0.000010    0.000010
   4 Cu    -1.318600    1.320796    1.320796
   5 Cu     0.000010    2.638910    0.002690
   6 Cu     0.000010    0.002690    2.638910
   7 Cu     1.318620    1.320804    1.320804

Unit cell:
           periodic     x           y           z      points  spacing
  1. axis:    yes   -2.637206    2.641588    2.641588    20     0.1868
  2. axis:    yes    2.637221   -2.636212    2.636227    20     0.1865
  3. axis:    yes    2.637221    2.636227   -2.636212    20     0.1865

  Lengths:   4.572836   4.566644   4.566644
  Angles:  109.450710 109.453813 109.453813

Effective grid spacing dv^(1/3) = 0.2094

                     log10-error:    total        iterations:
           time      wfs    density  energy       fermi  poisson  magmom
iter:   1  09:30:56  +2.05   +inf   -64.271554    32              +1.7973
iter:   2  09:31:02  +0.26   +inf   -64.896300    3               +1.8028
iter:   3  09:31:07  -0.76   +inf   -64.987971    2               +1.8039
iter:   4  09:31:14  +0.44  -1.08   -42.100323    34              +5.1972
iter:   5  09:31:20  -0.67  -1.34   -41.017187    4               +5.5323
iter:   6  09:31:26  +0.21  -1.43   -39.616949    34              +5.5535
iter:   7  09:31:32  -1.23  -1.90   -39.470457    4               +5.6938
iter:   8  09:31:39  -0.81  -1.98   -39.464523    3               +5.7576
iter:   9  09:31:45  -0.84  -2.08   -39.725611    3               +5.7583
iter:  10  09:31:51  -0.90  -2.24   -39.308232    3               +5.7296
iter:  11  09:31:57  -2.03  -2.45   -39.331015    3               +5.7675
iter:  12  09:32:03  -2.57  -2.49   -39.313700    3               +5.7633
iter:  13  09:32:10  -2.03  -2.56   -39.309804    3               +5.7651
iter:  14  09:32:16  -2.65  -2.84   -39.305863    3               +5.7727
iter:  15  09:32:22  -2.89  -3.10   -39.304835    3               +5.7796
iter:  16  09:32:28  -3.65  -3.21   -39.305494    2               +5.7822
iter:  17  09:32:35  -4.03  -3.28   -39.305564    2               +5.7824
iter:  18  09:32:41  -4.24  -3.36   -39.305517    2               +5.7837
iter:  19  09:32:47  -3.49  -3.40   -39.305872    3               +5.7862
iter:  20  09:32:53  -4.49  -3.55   -39.305636    2               +5.7888
iter:  21  09:33:00  -4.07  -3.71   -39.305349    2               +5.7899
iter:  22  09:33:06  -4.76  -3.83   -39.305399    2               +5.7906
iter:  23  09:33:12  -5.51  -3.99   -39.305406    2               +5.7914
iter:  24  09:33:18  -5.32  -4.15   -39.305389    2               +5.7931
iter:  25  09:33:24  -6.40  -4.40   -39.305391    2               +5.7934
iter:  26  09:33:31  -5.44  -4.46   -39.305425    2               +5.7943
iter:  27  09:33:37  -6.91  -4.81   -39.305435    2               +5.7946
iter:  28  09:33:43  -6.93  -4.85   -39.305437    2               +5.7949
iter:  29  09:33:49  -6.43  -4.92   -39.305442    2               +5.7955
iter:  30  09:33:56  -7.43  -5.09   -39.305448    2               +5.7959

Converged after 30 iterations.

Dipole moment: (-0.000195, -0.000203, -0.000203) |e|*Ang

Total magnetic moment: 5.795928
Local magnetic moments:
   0 Fe 1.907198
   1 Fe 1.871713
   2 Fe 1.871713
   3 Cu 0.048065
   4 Cu 0.036830
   5 Cu 0.073769
   6 Cu 0.073769
   7 Cu 0.036963

Energy contributions relative to reference atoms: (reference = -328965.623005)

Kinetic:        +73.518862
Potential:      -59.021673
External:        +0.000000
XC:             -54.611092
Entropy (-ST):   -0.192254
Local:           +0.904581
--------------------------
Free energy:    -39.401575
Extrapolated:   -39.305448

Spin contamination: 0.305320 electrons
Fermi level: 12.43342

Warning: Showing only first 2 kpts
                      Up                     Down
 Kpt  Band  Eigenvalues  Occupancy  Eigenvalues  Occupancy
  0    37     11.10003    0.00200     12.59009    0.00035
  0    38     11.23098    0.00200     12.76163    0.00007
  0    39     11.28651    0.00200     12.77282    0.00006
  0    40     11.85275    0.00199     13.31215    0.00000

  1    37     11.18631    0.00400     12.48811    0.00147
  1    38     11.21562    0.00400     12.83584    0.00007
  1    39     11.55362    0.00400     12.97468    0.00002
  1    40     11.79072    0.00399     13.25141    0.00000



Forces in eV/Ang:
  0 Fe   -0.00000   -0.00000   -0.00000
  1 Fe   -0.00000   -0.00000   -0.00000
  2 Fe   -0.00000   -0.00000   -0.00000
  3 Cu   -0.00000   -0.00000   -0.00000
  4 Cu   -0.00000   -0.00000   -0.00000
  5 Cu   -0.00000   -0.00000   -0.00000
  6 Cu   -0.00000   -0.00000   -0.00000
  7 Cu   -0.00000   -0.00000   -0.00000

Stress tensor:
    -0.458147    -0.000090    -0.000090
    -0.000090    -0.480459    -0.033918
    -0.000090    -0.033918    -0.480459
Writing to fecu_id10_relaxed.gpw (mode='')

System changes: positions, cell 

Initialize ...

Fe-setup:
  name: Iron
  id: 37abbd8d6c3c35915a9b583b742da910
  Z: 26
  valence: 8
  core: 18
  charge: 0.0
  file: /home/davidkl/gpaw-setups-0.9.20000/Fe.PBE.gz
  cutoffs: 1.06(comp), 2.06(filt), 2.67(core), lmax=2
  valence states:
                energy  radius
    4s(2.00)    -5.291   1.164
    4p(0.00)    -1.326   1.058
    3d(6.00)    -7.505   1.058
    *s          21.920   1.164
    *p          25.885   1.058
    *d          19.706   1.058

  Using partial waves for Fe as LCAO basis

Cu-setup:
  name: Copper
  id: f1c4d45d90492f1bbfdcb091e8418fdf
  Z: 29
  valence: 11
  core: 18
  charge: 0.0
  file: /home/davidkl/gpaw-setups-0.9.20000/Cu.PBE.gz
  cutoffs: 1.06(comp), 2.06(filt), 2.43(core), lmax=2
  valence states:
                energy  radius
    4s(1.00)    -4.609   1.164
    4p(0.00)    -0.698   1.164
    3d(10.00)    -5.039   1.058
    *s          22.603   1.164
    *p          26.513   1.164
    *d          22.172   1.058

  Using partial waves for Cu as LCAO basis

Reference energy: -328965.623005

Spin-polarized calculation.
Magnetic moment:  6.600000

Occupation numbers:
  Fermi-Dirac: width=0.1000 eV

Convergence criteria:
  Maximum total energy change: 0.0005 eV / electron
  Maximum integral of absolute density change: 0.0001 electrons
  Maximum integral of absolute eigenstate change: 4e-08 eV^2
  Maximum number of iterations: 333

Symmetries present (total): 2

  ( 1  0  0)  ( 1  0  0)
  ( 0  1  0)  ( 0  0  1)
  ( 0  0  1)  ( 0  1  0)

1000 k-points: 10 x 10 x 10 Monkhorst-Pack grid
275 k-points in the irreducible part of the Brillouin zone
       k-points in crystal coordinates                weights
   0:     0.05000000   -0.45000000   -0.45000000          2/1000
   1:     0.05000000   -0.35000000   -0.45000000          4/1000
   2:     0.05000000   -0.35000000   -0.35000000          2/1000
   3:     0.05000000   -0.25000000   -0.45000000          4/1000
   4:     0.05000000   -0.25000000   -0.35000000          4/1000
   5:     0.05000000   -0.25000000   -0.25000000          2/1000
   6:     0.05000000   -0.15000000   -0.45000000          4/1000
   7:     0.05000000   -0.15000000   -0.35000000          4/1000
   8:     0.05000000   -0.15000000   -0.25000000          4/1000
   9:     0.05000000   -0.15000000   -0.15000000          2/1000
          ...
 274:     0.45000000    0.45000000    0.45000000          2/1000

Wave functions: Plane wave expansion
  Cutoff energy: 500.000 eV
  Number of coefficients (min, max): 1873, 1920
  Pulay-stress correction: 0.000000 eV/Ang^3 (de/decut=0.000000)
  Using FFTW library
  Eigensolver: None  MatrixOperator buffer_size: default value or 
                              see value of nblock in input file
Diagonalizer layout: Serial LAPACKOrthonormalizer layout: Serial LAPACK 

Davidson(niter=1, smin=None, normalize=True) 

Densities:
  Coarse grid: 20*20*20 grid
  Fine grid: 40*40*40 grid
  Total Charge: 0.000000 

Density mixing:
  Method: sum
  Backend: pulay
  Linear mixing parameter: 0.05
  Mixing with 5 old densities
  Damping of long wave oscillations: 50 

Hamiltonian:
  XC and Coulomb potentials evaluated on a 40*40*40 grid
  Using the PBE Exchange-Correlation functional
 

Memory estimate:
  Process memory now: 250.21 MiB
  Calculator: 53.02 MiB
    Density: 4.25 MiB
      Arrays: 2.14 MiB
      Localized functions: 1.51 MiB
      Mixer: 0.61 MiB
    Hamiltonian: 1.62 MiB
      Arrays: 1.59 MiB
      XC: 0.00 MiB
      Poisson: 0.00 MiB
      vbar: 0.04 MiB
    Wavefunctions: 47.15 MiB
      Arrays psit_nG: 33.87 MiB
      Eigensolver: 2.85 MiB
      Projections: 2.54 MiB
      Projectors: 5.16 MiB
      Overlap op: 2.06 MiB
      PW-descriptor: 0.67 MiB

Total number of cores used: 32
Parallelization over k-points and spin: 32

Number of atoms: 8
Number of atomic orbitals: 72
Number of bands in calculation: 68
Bands to converge: occupied states only
Number of valence electrons: 79

... initialized

Initializing position-dependent things.

Density initialized from atomic densities
Creating initial wave functions:
  68 bands from LCAO basis set

                             
                             
                             
                             
                             
           Cu                
         Cu     Cu           
             Cu              
              Fe             
           Fe     Cu         
                Fe           
                             
                             
                             
                             
                             

Positions:
   0 Fe     0.000003    0.000003    0.000003
   1 Fe     1.324770    1.324146   -1.324131
   2 Fe     1.324770   -1.324131    1.324146
   3 Cu     2.649537    0.000012    0.000012
   4 Cu    -1.324755    1.327735    1.327735
   5 Cu     0.000012    2.651878    0.003601
   6 Cu     0.000012    0.003601    2.651878
   7 Cu     1.324779    1.327745    1.327745

Unit cell:
           periodic     x           y           z      points  spacing
  1. axis:    yes   -2.649515    2.655464    2.655464    20     0.1878
  2. axis:    yes    2.649534   -2.648267    2.648286    20     0.1874
  3. axis:    yes    2.649534    2.648286   -2.648267    20     0.1874

  Lengths:   4.595967   4.587676   4.587676
  Angles:  109.445577 109.447183 109.447183

Effective grid spacing dv^(1/3) = 0.2104

                     log10-error:    total        iterations:
           time      wfs    density  energy       fermi  poisson  magmom
iter:   1  09:34:28  +2.06   +inf   -64.735124    35              +1.7845
iter:   2  09:34:34  +0.26   +inf   -65.360493    3               +1.7902
iter:   3  09:34:39  -0.76   +inf   -65.452255    2               +1.7914
iter:   4  09:34:46  +0.45  -1.08   -42.510674    33              +5.2512
iter:   5  09:34:52  -0.68  -1.34   -41.499207    4               +5.6066
iter:   6  09:34:58  +0.21  -1.43   -40.074975    33              +5.6567
iter:   7  09:35:04  -1.25  -1.90   -39.951673    3               +5.7838
iter:   8  09:35:11  -0.84  -1.98   -39.946800    3               +5.8412
iter:   9  09:35:17  -0.90  -2.08   -40.158352    3               +5.8548
iter:  10  09:35:23  -1.00  -2.27   -39.810904    3               +5.8384
iter:  11  09:35:29  -2.07  -2.45   -39.827463    3               +5.8742
iter:  12  09:35:36  -2.58  -2.49   -39.810733    3               +5.8723
iter:  13  09:35:42  -2.09  -2.56   -39.808405    3               +5.8809
iter:  14  09:35:48  -2.65  -2.82   -39.804730    3               +5.8917
iter:  15  09:35:54  -2.92  -3.08   -39.804088    3               +5.8998
iter:  16  09:36:01  -3.65  -3.20   -39.804978    2               +5.9042
iter:  17  09:36:07  -4.02  -3.29   -39.805040    2               +5.9060
iter:  18  09:36:13  -4.36  -3.37   -39.805016    2               +5.9082
iter:  19  09:36:19  -3.69  -3.40   -39.805040    3               +5.9118
iter:  20  09:36:26  -5.02  -3.54   -39.805098    2               +5.9163
iter:  21  09:36:32  -4.28  -3.77   -39.804962    2               +5.9194
iter:  22  09:36:38  -4.80  -4.05   -39.805000    2               +5.9209
iter:  23  09:36:44  -6.04  -4.23   -39.805015    2               +5.9216
iter:  24  09:36:51  -5.74  -4.25   -39.805039    1               +5.9236
iter:  25  09:36:57  -6.02  -4.31   -39.805108    2               +5.9276
iter:  26  09:37:03  -5.46  -4.48   -39.805127    2               +5.9282
iter:  27  09:37:09  -6.79  -4.72   -39.805135    2               +5.9285
iter:  28  09:37:16  -6.17  -4.89   -39.805128    2               +5.9287
iter:  29  09:37:22  -7.44  -5.02   -39.805129    2               +5.9289

Converged after 29 iterations.

Dipole moment: (-0.000196, -0.000205, -0.000205) |e|*Ang

Total magnetic moment: 5.928927
Local magnetic moments:
   0 Fe 1.943538
   1 Fe 1.920873
   2 Fe 1.920873
   3 Cu 0.049056
   4 Cu 0.037006
   5 Cu 0.074218
   6 Cu 0.074218
   7 Cu 0.037147

Energy contributions relative to reference atoms: (reference = -328965.623005)

Kinetic:        +64.169802
Potential:      -51.567671
External:        +0.000000
XC:             -53.203619
Entropy (-ST):   -0.193321
Local:           +0.893018
--------------------------
Free energy:    -39.901790
Extrapolated:   -39.805129

Spin contamination: 0.316074 electrons
Fermi level: 12.19582

Warning: Showing only first 2 kpts
                      Up                     Down
 Kpt  Band  Eigenvalues  Occupancy  Eigenvalues  Occupancy
  0    37     10.84483    0.00200     12.37255    0.00029
  0    38     10.97989    0.00200     12.54677    0.00006
  0    39     11.03166    0.00200     12.54816    0.00006
  0    40     11.57362    0.00200     13.07700    0.00000

  1    37     10.93362    0.00400     12.27100    0.00128
  1    38     10.96183    0.00400     12.61568    0.00006
  1    39     11.28717    0.00400     12.75016    0.00002
  1    40     11.51733    0.00400     13.02020    0.00000



Forces in eV/Ang:
  0 Fe   -0.00000   -0.00000   -0.00000
  1 Fe   -0.00000   -0.00000   -0.00000
  2 Fe   -0.00000   -0.00000   -0.00000
  3 Cu   -0.00000   -0.00000   -0.00000
  4 Cu   -0.00000   -0.00000   -0.00000
  5 Cu   -0.00000   -0.00000   -0.00000
  6 Cu   -0.00000   -0.00000   -0.00000
  7 Cu   -0.00000   -0.00000   -0.00000

Stress tensor:
    -0.417448    -0.000081    -0.000081
    -0.000081    -0.438900    -0.031365
    -0.000081    -0.031365    -0.438900
Writing to fecu_id10_relaxed.gpw (mode='')

System changes: positions, cell 

Initialize ...

Fe-setup:
  name: Iron
  id: 37abbd8d6c3c35915a9b583b742da910
  Z: 26
  valence: 8
  core: 18
  charge: 0.0
  file: /home/davidkl/gpaw-setups-0.9.20000/Fe.PBE.gz
  cutoffs: 1.06(comp), 2.06(filt), 2.67(core), lmax=2
  valence states:
                energy  radius
    4s(2.00)    -5.291   1.164
    4p(0.00)    -1.326   1.058
    3d(6.00)    -7.505   1.058
    *s          21.920   1.164
    *p          25.885   1.058
    *d          19.706   1.058

  Using partial waves for Fe as LCAO basis

Cu-setup:
  name: Copper
  id: f1c4d45d90492f1bbfdcb091e8418fdf
  Z: 29
  valence: 11
  core: 18
  charge: 0.0
  file: /home/davidkl/gpaw-setups-0.9.20000/Cu.PBE.gz
  cutoffs: 1.06(comp), 2.06(filt), 2.43(core), lmax=2
  valence states:
                energy  radius
    4s(1.00)    -4.609   1.164
    4p(0.00)    -0.698   1.164
    3d(10.00)    -5.039   1.058
    *s          22.603   1.164
    *p          26.513   1.164
    *d          22.172   1.058

  Using partial waves for Cu as LCAO basis

Reference energy: -328965.623005

Spin-polarized calculation.
Magnetic moment:  6.600000

Occupation numbers:
  Fermi-Dirac: width=0.1000 eV

Convergence criteria:
  Maximum total energy change: 0.0005 eV / electron
  Maximum integral of absolute density change: 0.0001 electrons
  Maximum integral of absolute eigenstate change: 4e-08 eV^2
  Maximum number of iterations: 333

Symmetries present (total): 2

  ( 1  0  0)  ( 1  0  0)
  ( 0  1  0)  ( 0  0  1)
  ( 0  0  1)  ( 0  1  0)

1000 k-points: 10 x 10 x 10 Monkhorst-Pack grid
275 k-points in the irreducible part of the Brillouin zone
       k-points in crystal coordinates                weights
   0:     0.05000000   -0.45000000   -0.45000000          2/1000
   1:     0.05000000   -0.35000000   -0.45000000          4/1000
   2:     0.05000000   -0.35000000   -0.35000000          2/1000
   3:     0.05000000   -0.25000000   -0.45000000          4/1000
   4:     0.05000000   -0.25000000   -0.35000000          4/1000
   5:     0.05000000   -0.25000000   -0.25000000          2/1000
   6:     0.05000000   -0.15000000   -0.45000000          4/1000
   7:     0.05000000   -0.15000000   -0.35000000          4/1000
   8:     0.05000000   -0.15000000   -0.25000000          4/1000
   9:     0.05000000   -0.15000000   -0.15000000          2/1000
          ...
 274:     0.45000000    0.45000000    0.45000000          2/1000

Wave functions: Plane wave expansion
  Cutoff energy: 500.000 eV
  Number of coefficients (min, max): 1905, 1936
  Pulay-stress correction: 0.000000 eV/Ang^3 (de/decut=0.000000)
  Using FFTW library
  Eigensolver: None  MatrixOperator buffer_size: default value or 
                              see value of nblock in input file
Diagonalizer layout: Serial LAPACKOrthonormalizer layout: Serial LAPACK 

Davidson(niter=1, smin=None, normalize=True) 

Densities:
  Coarse grid: 20*20*20 grid
  Fine grid: 40*40*40 grid
  Total Charge: 0.000000 

Density mixing:
  Method: sum
  Backend: pulay
  Linear mixing parameter: 0.05
  Mixing with 5 old densities
  Damping of long wave oscillations: 50 

Hamiltonian:
  XC and Coulomb potentials evaluated on a 40*40*40 grid
  Using the PBE Exchange-Correlation functional
 

Memory estimate:
  Process memory now: 250.36 MiB
  Calculator: 53.42 MiB
    Density: 4.25 MiB
      Arrays: 2.14 MiB
      Localized functions: 1.51 MiB
      Mixer: 0.61 MiB
    Hamiltonian: 1.62 MiB
      Arrays: 1.59 MiB
      XC: 0.00 MiB
      Poisson: 0.00 MiB
      vbar: 0.04 MiB
    Wavefunctions: 47.54 MiB
      Arrays psit_nG: 34.15 MiB
      Eigensolver: 2.86 MiB
      Projections: 2.54 MiB
      Projectors: 5.23 MiB
      Overlap op: 2.08 MiB
      PW-descriptor: 0.68 MiB

Total number of cores used: 32
Parallelization over k-points and spin: 32

Number of atoms: 8
Number of atomic orbitals: 72
Number of bands in calculation: 68
Bands to converge: occupied states only
Number of valence electrons: 79

... initialized

Initializing position-dependent things.

Density initialized from atomic densities
Creating initial wave functions:
  68 bands from LCAO basis set

                             
                             
                             
                             
                             
           Cu                
         Cu     Cu           
             Cu              
              Fe             
           Fe     Cu         
                Fe           
                             
                             
                             
                             
                             

Positions:
   0 Fe     0.000003    0.000003    0.000003
   1 Fe     1.330904    1.330170   -1.330152
   2 Fe     1.330904   -1.330152    1.330170
   3 Cu     2.661805    0.000015    0.000015
   4 Cu    -1.330887    1.334678    1.334678
   5 Cu     0.000015    2.664845    0.004523
   6 Cu     0.000015    0.004523    2.664845
   7 Cu     1.330916    1.334690    1.334690

Unit cell:
           periodic     x           y           z      points  spacing
  1. axis:    yes   -2.661779    2.669351    2.669351    20     0.1888
  2. axis:    yes    2.661803   -2.660310    2.660334    20     0.1883
  3. axis:    yes    2.661803    2.660334   -2.660310    20     0.1883

  Lengths:   4.619084   4.608668   4.608668
  Angles:  109.441167 109.440175 109.440175

Effective grid spacing dv^(1/3) = 0.2114

                     log10-error:    total        iterations:
           time      wfs    density  energy       fermi  poisson  magmom
iter:   1  09:37:55  +2.06   +inf   -65.158749    35              +1.7711
iter:   2  09:38:00  +0.26   +inf   -65.781722    3               +1.7770
iter:   3  09:38:06  -0.77   +inf   -65.872866    2               +1.7782
iter:   4  09:38:12  +0.46  -1.07   -42.883155    34              +5.3047
iter:   5  09:38:19  -0.70  -1.34   -41.939126    4               +5.6804
iter:   6  09:38:25  +0.20  -1.43   -40.496791    32              +5.7559
iter:   7  09:38:31  -1.26  -1.90   -40.394724    3               +5.8709
iter:   8  09:38:38  -0.88  -1.97   -40.386063    3               +5.9255
iter:   9  09:38:44  -0.97  -2.09   -40.559000    3               +5.9519
iter:  10  09:38:50  -1.11  -2.30   -40.273919    3               +5.9449
iter:  11  09:38:57  -2.07  -2.45   -40.283405    3               +5.9797
iter:  12  09:39:03  -2.61  -2.49   -40.268690    3               +5.9799
iter:  13  09:39:09  -2.13  -2.55   -40.267459    3               +5.9948
iter:  14  09:39:15  -2.63  -2.80   -40.264058    3               +6.0086
iter:  15  09:39:22  -3.03  -3.08   -40.263854    2               +6.0168
iter:  16  09:39:28  -3.58  -3.18   -40.264962    2               +6.0240
iter:  17  09:39:34  -4.01  -3.29   -40.265102    2               +6.0276
iter:  18  09:39:41  -4.45  -3.40   -40.265127    2               +6.0306
iter:  19  09:39:47  -3.80  -3.42   -40.265147    2               +6.0352
iter:  20  09:39:53  -5.07  -3.52   -40.265233    2               +6.0395
iter:  21  09:40:00  -3.92  -3.64   -40.265259    2               +6.0460
iter:  22  09:40:06  -5.01  -3.81   -40.265258    2               +6.0476
iter:  23  09:40:12  -4.52  -3.86   -40.265334    2               +6.0522
iter:  24  09:40:19  -5.85  -4.35   -40.265365    2               +6.0539
iter:  25  09:40:25  -5.29  -4.52   -40.265340    2               +6.0543
iter:  26  09:40:31  -6.70  -4.55   -40.265325    1               +6.0535
iter:  27  09:40:37  -5.79  -4.43   -40.265381    2               +6.0578
iter:  28  09:40:44  -6.65  -4.86   -40.265399    2               +6.0590
iter:  29  09:40:50  -6.88  -4.90   -40.265411    2               +6.0597
iter:  30  09:40:56  -7.75  -4.90   -40.265413    2               +6.0599

Converged after 30 iterations.

Dipole moment: (-0.000198, -0.000207, -0.000207) |e|*Ang

Total magnetic moment: 6.059857
Local magnetic moments:
   0 Fe 1.979474
   1 Fe 1.970086
   2 Fe 1.970086
   3 Cu 0.050030
   4 Cu 0.037154
   5 Cu 0.074476
   6 Cu 0.074476
   7 Cu 0.037305

Energy contributions relative to reference atoms: (reference = -328965.623005)

Kinetic:        +55.357844
Potential:      -44.552802
External:        +0.000000
XC:             -51.856022
Entropy (-ST):   -0.194501
Local:           +0.882817
--------------------------
Free energy:    -40.362663
Extrapolated:   -40.265413

Spin contamination: 0.326664 electrons
Fermi level: 11.96376

Warning: Showing only first 2 kpts
                      Up                     Down
 Kpt  Band  Eigenvalues  Occupancy  Eigenvalues  Occupancy
  0    37     10.59748    0.00200     12.15927    0.00025
  0    38     10.73339    0.00200     12.32813    0.00005
  0    39     10.78273    0.00200     12.33599    0.00005
  0    40     11.29931    0.00200     12.84685    0.00000

  1    37     10.68513    0.00400     12.05877    0.00112
  1    38     10.71376    0.00400     12.39985    0.00005
  1    39     11.02540    0.00400     12.53029    0.00001
  1    40     11.24884    0.00400     12.79374    0.00000



Forces in eV/Ang:
  0 Fe   -0.00000   -0.00000   -0.00000
  1 Fe   -0.00000   -0.00000   -0.00000
  2 Fe   -0.00000   -0.00000   -0.00000
  3 Cu   -0.00000   -0.00000   -0.00000
  4 Cu   -0.00000   -0.00000   -0.00000
  5 Cu   -0.00000   -0.00000   -0.00000
  6 Cu   -0.00000   -0.00000   -0.00000
  7 Cu   -0.00000   -0.00000   -0.00000

Stress tensor:
    -0.379349    -0.000073    -0.000073
    -0.000073    -0.400007    -0.029029
    -0.000073    -0.029029    -0.400007
Writing to fecu_id10_relaxed.gpw (mode='')

System changes: positions, cell 

Initialize ...

Fe-setup:
  name: Iron
  id: 37abbd8d6c3c35915a9b583b742da910
  Z: 26
  valence: 8
  core: 18
  charge: 0.0
  file: /home/davidkl/gpaw-setups-0.9.20000/Fe.PBE.gz
  cutoffs: 1.06(comp), 2.06(filt), 2.67(core), lmax=2
  valence states:
                energy  radius
    4s(2.00)    -5.291   1.164
    4p(0.00)    -1.326   1.058
    3d(6.00)    -7.505   1.058
    *s          21.920   1.164
    *p          25.885   1.058
    *d          19.706   1.058

  Using partial waves for Fe as LCAO basis

Cu-setup:
  name: Copper
  id: f1c4d45d90492f1bbfdcb091e8418fdf
  Z: 29
  valence: 11
  core: 18
  charge: 0.0
  file: /home/davidkl/gpaw-setups-0.9.20000/Cu.PBE.gz
  cutoffs: 1.06(comp), 2.06(filt), 2.43(core), lmax=2
  valence states:
                energy  radius
    4s(1.00)    -4.609   1.164
    4p(0.00)    -0.698   1.164
    3d(10.00)    -5.039   1.058
    *s          22.603   1.164
    *p          26.513   1.164
    *d          22.172   1.058

  Using partial waves for Cu as LCAO basis

Reference energy: -328965.623005

Spin-polarized calculation.
Magnetic moment:  6.600000

Occupation numbers:
  Fermi-Dirac: width=0.1000 eV

Convergence criteria:
  Maximum total energy change: 0.0005 eV / electron
  Maximum integral of absolute density change: 0.0001 electrons
  Maximum integral of absolute eigenstate change: 4e-08 eV^2
  Maximum number of iterations: 333

Symmetries present (total): 2

  ( 1  0  0)  ( 1  0  0)
  ( 0  1  0)  ( 0  0  1)
  ( 0  0  1)  ( 0  1  0)

1000 k-points: 10 x 10 x 10 Monkhorst-Pack grid
275 k-points in the irreducible part of the Brillouin zone
       k-points in crystal coordinates                weights
   0:     0.05000000   -0.45000000   -0.45000000          2/1000
   1:     0.05000000   -0.35000000   -0.45000000          4/1000
   2:     0.05000000   -0.35000000   -0.35000000          2/1000
   3:     0.05000000   -0.25000000   -0.45000000          4/1000
   4:     0.05000000   -0.25000000   -0.35000000          4/1000
   5:     0.05000000   -0.25000000   -0.25000000          2/1000
   6:     0.05000000   -0.15000000   -0.45000000          4/1000
   7:     0.05000000   -0.15000000   -0.35000000          4/1000
   8:     0.05000000   -0.15000000   -0.25000000          4/1000
   9:     0.05000000   -0.15000000   -0.15000000          2/1000
          ...
 274:     0.45000000    0.45000000    0.45000000          2/1000

Wave functions: Plane wave expansion
  Cutoff energy: 500.000 eV
  Number of coefficients (min, max): 1925, 1961
  Pulay-stress correction: 0.000000 eV/Ang^3 (de/decut=0.000000)
  Using FFTW library
  Eigensolver: None  MatrixOperator buffer_size: default value or 
                              see value of nblock in input file
Diagonalizer layout: Serial LAPACKOrthonormalizer layout: Serial LAPACK 

Davidson(niter=1, smin=None, normalize=True) 

Densities:
  Coarse grid: 20*20*20 grid
  Fine grid: 40*40*40 grid
  Total Charge: 0.000000 

Density mixing:
  Method: sum
  Backend: pulay
  Linear mixing parameter: 0.05
  Mixing with 5 old densities
  Damping of long wave oscillations: 50 

Hamiltonian:
  XC and Coulomb potentials evaluated on a 40*40*40 grid
  Using the PBE Exchange-Correlation functional
 

Memory estimate:
  Process memory now: 250.39 MiB
  Calculator: 53.99 MiB
    Density: 4.25 MiB
      Arrays: 2.14 MiB
      Localized functions: 1.51 MiB
      Mixer: 0.61 MiB
    Hamiltonian: 1.62 MiB
      Arrays: 1.59 MiB
      XC: 0.00 MiB
      Poisson: 0.00 MiB
      vbar: 0.04 MiB
    Wavefunctions: 48.11 MiB
      Arrays psit_nG: 34.59 MiB
      Eigensolver: 2.89 MiB
      Projections: 2.54 MiB
      Projectors: 5.30 MiB
      Overlap op: 2.11 MiB
      PW-descriptor: 0.68 MiB

Total number of cores used: 32
Parallelization over k-points and spin: 32

Number of atoms: 8
Number of atomic orbitals: 72
Number of bands in calculation: 68
Bands to converge: occupied states only
Number of valence electrons: 79

... initialized

Initializing position-dependent things.

Density initialized from atomic densities
Creating initial wave functions:
  68 bands from LCAO basis set

                             
                             
                             
                             
                             
           Cu                
         Cu     Cu           
             Cu              
              Fe             
           Fe     Cu         
                Fe           
                             
                             
                             
                             
                             

Positions:
   0 Fe     0.000003    0.000003    0.000003
   1 Fe     1.337014    1.336186   -1.336166
   2 Fe     1.337014   -1.336166    1.336186
   3 Cu     2.674026    0.000017    0.000017
   4 Cu    -1.336995    1.341628    1.341628
   5 Cu     0.000017    2.677812    0.005459
   6 Cu     0.000017    0.005459    2.677812
   7 Cu     1.337029    1.341642    1.341642

Unit cell:
           periodic     x           y           z      points  spacing
  1. axis:    yes   -2.673995    2.683251    2.683251    20     0.1897
  2. axis:    yes    2.674024   -2.672338    2.672367    20     0.1892
  3. axis:    yes    2.674024    2.672367   -2.672338    20     0.1892

  Lengths:   4.642189   4.629615   4.629615
  Angles:  109.437447 109.432768 109.432768

Effective grid spacing dv^(1/3) = 0.2124

                     log10-error:    total        iterations:
           time      wfs    density  energy       fermi  poisson  magmom
iter:   1  09:41:29  +2.06   +inf   -65.541890    35              +1.7572
iter:   2  09:41:35  +0.26   +inf   -66.161105    3               +1.7633
iter:   3  09:41:41  -0.77   +inf   -66.251535    2               +1.7645
iter:   4  09:41:47  +0.47  -1.07   -43.219545    33              +5.3576
iter:   5  09:41:54  -0.71  -1.34   -42.338881    4               +5.7538
iter:   6  09:42:00  +0.20  -1.42   -40.884329    33              +5.8509
iter:   7  09:42:06  -1.28  -1.90   -40.801290    3               +5.9555
iter:   8  09:42:13  -0.93  -1.97   -40.785388    3               +6.0108
iter:   9  09:42:19  -1.03  -2.10   -40.928497    3               +6.0499
iter:  10  09:42:25  -1.23  -2.32   -40.699131    3               +6.0496
iter:  11  09:42:32  -2.02  -2.44   -40.701060    3               +6.0845
iter:  12  09:42:38  -2.65  -2.48   -40.689212    2               +6.0859
iter:  13  09:42:45  -2.15  -2.53   -40.689077    3               +6.1079
iter:  14  09:42:51  -2.61  -2.80   -40.685792    3               +6.1249
iter:  15  09:42:57  -3.34  -3.11   -40.685946    2               +6.1314
iter:  16  09:43:04  -3.57  -3.16   -40.687140    2               +6.1420
iter:  17  09:43:10  -4.13  -3.29   -40.687452    2               +6.1484
iter:  18  09:43:17  -4.55  -3.46   -40.687609    2               +6.1533
iter:  19  09:43:23  -4.33  -3.49   -40.687618    2               +6.1573
iter:  20  09:43:29  -5.09  -3.53   -40.687649    2               +6.1620
iter:  21  09:43:36  -4.85  -3.68   -40.687784    2               +6.1707
iter:  22  09:43:42  -5.10  -4.20   -40.687826    2               +6.1724
iter:  23  09:43:48  -5.96  -4.33   -40.687850    2               +6.1737
iter:  24  09:43:55  -5.46  -4.40   -40.687889    2               +6.1766
iter:  25  09:44:01  -6.46  -4.54   -40.687910    2               +6.1781
iter:  26  09:44:08  -6.32  -4.57   -40.687937    2               +6.1797
iter:  27  09:44:14  -6.51  -4.66   -40.687983    2               +6.1825
iter:  28  09:44:20  -7.12  -4.71   -40.687986    2               +6.1828
iter:  29  09:44:27  -7.25  -4.71   -40.687991    2               +6.1832
iter:  30  09:44:33  -5.90  -4.76   -40.688047    2               +6.1880
iter:  31  09:44:40  -6.90  -4.87   -40.688055    2               +6.1890
iter:  32  09:44:46  -7.57  -4.94   -40.688059    2               +6.1894

Converged after 32 iterations.

Dipole moment: (-0.000200, -0.000210, -0.000210) |e|*Ang

Total magnetic moment: 6.189449
Local magnetic moments:
   0 Fe 2.014685
   1 Fe 2.019440
   2 Fe 2.019440
   3 Cu 0.051045
   4 Cu 0.037273
   5 Cu 0.074581
   6 Cu 0.074581
   7 Cu 0.037433

Energy contributions relative to reference atoms: (reference = -328965.623005)

Kinetic:        +47.115915
Potential:      -38.008152
External:        +0.000000
XC:             -50.564429
Entropy (-ST):   -0.195848
Local:           +0.866532
--------------------------
Free energy:    -40.785983
Extrapolated:   -40.688059

Spin contamination: 0.337060 electrons
Fermi level: 11.73701

Warning: Showing only first 2 kpts
                      Up                     Down
 Kpt  Band  Eigenvalues  Occupancy  Eigenvalues  Occupancy
  0    37     10.35894    0.00200     11.95020    0.00021
  0    38     10.49123    0.00200     12.11269    0.00005
  0    39     10.53966    0.00200     12.12953    0.00004
  0    40     11.02960    0.00200     12.62161    0.00000

  1    37     10.44074    0.00400     11.85145    0.00097
  1    38     10.47119    0.00400     12.18843    0.00004
  1    39     10.76830    0.00400     12.31530    0.00001
  1    40     10.98508    0.00400     12.57198    0.00000



Forces in eV/Ang:
  0 Fe   -0.00000   -0.00000   -0.00000
  1 Fe   -0.00000   -0.00000   -0.00000
  2 Fe   -0.00000   -0.00000   -0.00000
  3 Cu   -0.00000   -0.00000   -0.00000
  4 Cu   -0.00000   -0.00000   -0.00000
  5 Cu   -0.00000   -0.00000   -0.00000
  6 Cu   -0.00000   -0.00000   -0.00000
  7 Cu   -0.00000   -0.00000   -0.00000

Stress tensor:
    -0.343590    -0.000064    -0.000064
    -0.000064    -0.363367    -0.026834
    -0.000064    -0.026834    -0.363367
Writing to fecu_id10_relaxed.gpw (mode='')

System changes: positions, cell 

Initialize ...

Fe-setup:
  name: Iron
  id: 37abbd8d6c3c35915a9b583b742da910
  Z: 26
  valence: 8
  core: 18
  charge: 0.0
  file: /home/davidkl/gpaw-setups-0.9.20000/Fe.PBE.gz
  cutoffs: 1.06(comp), 2.06(filt), 2.67(core), lmax=2
  valence states:
                energy  radius
    4s(2.00)    -5.291   1.164
    4p(0.00)    -1.326   1.058
    3d(6.00)    -7.505   1.058
    *s          21.920   1.164
    *p          25.885   1.058
    *d          19.706   1.058

  Using partial waves for Fe as LCAO basis

Cu-setup:
  name: Copper
  id: f1c4d45d90492f1bbfdcb091e8418fdf
  Z: 29
  valence: 11
  core: 18
  charge: 0.0
  file: /home/davidkl/gpaw-setups-0.9.20000/Cu.PBE.gz
  cutoffs: 1.06(comp), 2.06(filt), 2.43(core), lmax=2
  valence states:
                energy  radius
    4s(1.00)    -4.609   1.164
    4p(0.00)    -0.698   1.164
    3d(10.00)    -5.039   1.058
    *s          22.603   1.164
    *p          26.513   1.164
    *d          22.172   1.058

  Using partial waves for Cu as LCAO basis

Reference energy: -328965.623005

Spin-polarized calculation.
Magnetic moment:  6.600000

Occupation numbers:
  Fermi-Dirac: width=0.1000 eV

Convergence criteria:
  Maximum total energy change: 0.0005 eV / electron
  Maximum integral of absolute density change: 0.0001 electrons
  Maximum integral of absolute eigenstate change: 4e-08 eV^2
  Maximum number of iterations: 333

Symmetries present (total): 2

  ( 1  0  0)  ( 1  0  0)
  ( 0  1  0)  ( 0  0  1)
  ( 0  0  1)  ( 0  1  0)

1000 k-points: 10 x 10 x 10 Monkhorst-Pack grid
275 k-points in the irreducible part of the Brillouin zone
       k-points in crystal coordinates                weights
   0:     0.05000000   -0.45000000   -0.45000000          2/1000
   1:     0.05000000   -0.35000000   -0.45000000          4/1000
   2:     0.05000000   -0.35000000   -0.35000000          2/1000
   3:     0.05000000   -0.25000000   -0.45000000          4/1000
   4:     0.05000000   -0.25000000   -0.35000000          4/1000
   5:     0.05000000   -0.25000000   -0.25000000          2/1000
   6:     0.05000000   -0.15000000   -0.45000000          4/1000
   7:     0.05000000   -0.15000000   -0.35000000          4/1000
   8:     0.05000000   -0.15000000   -0.25000000          4/1000
   9:     0.05000000   -0.15000000   -0.15000000          2/1000
          ...
 274:     0.45000000    0.45000000    0.45000000          2/1000

Wave functions: Plane wave expansion
  Cutoff energy: 500.000 eV
  Number of coefficients (min, max): 1941, 1997
  Pulay-stress correction: 0.000000 eV/Ang^3 (de/decut=0.000000)
  Using FFTW library
  Eigensolver: None  MatrixOperator buffer_size: default value or 
                              see value of nblock in input file
Diagonalizer layout: Serial LAPACKOrthonormalizer layout: Serial LAPACK 

Davidson(niter=1, smin=None, normalize=True) 

Densities:
  Coarse grid: 20*20*20 grid
  Fine grid: 40*40*40 grid
  Total Charge: 0.000000 

Density mixing:
  Method: sum
  Backend: pulay
  Linear mixing parameter: 0.05
  Mixing with 5 old densities
  Damping of long wave oscillations: 50 

Hamiltonian:
  XC and Coulomb potentials evaluated on a 40*40*40 grid
  Using the PBE Exchange-Correlation functional
 

Memory estimate:
  Process memory now: 256.97 MiB
  Calculator: 54.79 MiB
    Density: 4.25 MiB
      Arrays: 2.14 MiB
      Localized functions: 1.50 MiB
      Mixer: 0.61 MiB
    Hamiltonian: 1.62 MiB
      Arrays: 1.59 MiB
      XC: 0.00 MiB
      Poisson: 0.00 MiB
      vbar: 0.04 MiB
    Wavefunctions: 48.91 MiB
      Arrays psit_nG: 35.23 MiB
      Eigensolver: 2.93 MiB
      Projections: 2.54 MiB
      Projectors: 5.38 MiB
      Overlap op: 2.14 MiB
      PW-descriptor: 0.69 MiB

Total number of cores used: 32
Parallelization over k-points and spin: 32

Number of atoms: 8
Number of atomic orbitals: 72
Number of bands in calculation: 68
Bands to converge: occupied states only
Number of valence electrons: 79

... initialized

Initializing position-dependent things.

Density initialized from atomic densities
Creating initial wave functions:
  68 bands from LCAO basis set

                             
                             
                             
                             
                             
           Cu                
         Cu     Cu           
             Cu              
              Fe             
           Fe     Cu         
                Fe           
                             
                             
                             
                             
                             

Positions:
   0 Fe     0.000003    0.000003    0.000003
   1 Fe     1.343103    1.342194   -1.342172
   2 Fe     1.343103   -1.342172    1.342194
   3 Cu     2.686204    0.000019    0.000019
   4 Cu    -1.343081    1.348586    1.348586
   5 Cu     0.000019    2.690777    0.006411
   6 Cu     0.000019    0.006411    2.690777
   7 Cu     1.343119    1.348602    1.348602

Unit cell:
           periodic     x           y           z      points  spacing
  1. axis:    yes   -2.686168    2.697166    2.697166    20     0.1907
  2. axis:    yes    2.686201   -2.684349    2.684382    20     0.1901
  3. axis:    yes    2.686201    2.684382   -2.684349    20     0.1901

  Lengths:   4.665288   4.650518   4.650518
  Angles:  109.434298 109.425008 109.425008

Effective grid spacing dv^(1/3) = 0.2134

                     log10-error:    total        iterations:
           time      wfs    density  energy       fermi  poisson  magmom
iter:   1  09:45:19  +2.06   +inf   -65.882989    36              +1.7427
iter:   2  09:45:25  +0.26   +inf   -66.500103    3               +1.7489
iter:   3  09:45:31  -0.77   +inf   -66.590395    2               +1.7501
iter:   4  09:45:37  +0.47  -1.07   -43.522189    34              +5.4098
iter:   5  09:45:44  -0.72  -1.34   -42.701049    4               +5.8268
iter:   6  09:45:50  +0.19  -1.42   -41.240096    34              +5.9417
iter:   7  09:45:57  -1.31  -1.89   -41.173743    3               +6.0378
iter:   8  09:46:03  -0.99  -1.97   -41.148759    3               +6.0971
iter:   9  09:46:10  -1.09  -2.11   -41.268537    3               +6.1486
iter:  10  09:46:17  -1.37  -2.34   -41.089257    3               +6.1529
iter:  11  09:46:23  -1.95  -2.44   -41.083266    3               +6.1881
iter:  12  09:46:30  -2.67  -2.46   -41.074674    2               +6.1898
iter:  13  09:46:36  -2.12  -2.51   -41.075382    3               +6.2208
iter:  14  09:46:43  -2.65  -2.83   -41.072652    3               +6.2407
iter:  15  09:46:49  -3.82  -3.17   -41.072955    2               +6.2456
iter:  16  09:46:56  -4.10  -3.18   -41.073690    2               +6.2546
iter:  17  09:47:02  -4.25  -3.25   -41.074722    2               +6.2725
iter:  18  09:47:09  -4.41  -3.61   -41.075117    2               +6.2841
iter:  19  09:47:15  -4.75  -3.90   -41.075115    2               +6.2873
iter:  20  09:47:22  -4.47  -3.96   -41.075163    2               +6.2907
iter:  21  09:47:28  -5.58  -4.11   -41.075214    2               +6.2926
iter:  22  09:47:35  -5.70  -4.19   -41.075295    2               +6.2960
iter:  23  09:47:41  -5.53  -4.31   -41.075398    2               +6.3018
iter:  24  09:47:48  -6.15  -4.48   -41.075428    2               +6.3043
iter:  25  09:47:54  -5.95  -4.54   -41.075471    2               +6.3081
iter:  26  09:48:01  -6.80  -4.65   -41.075485    2               +6.3091
iter:  27  09:48:07  -7.39  -4.60   -41.075485    2               +6.3092
iter:  28  09:48:14  -5.96  -4.59   -41.075514    2               +6.3114
iter:  29  09:48:20  -6.48  -4.58   -41.075543    2               +6.3139
iter:  30  09:48:27  -6.38  -4.61   -41.075557    2               +6.3158
iter:  31  09:48:34  -6.88  -4.80   -41.075577    2               +6.3176
iter:  32  09:48:40  -7.02  -4.80   -41.075584    2               +6.3184
iter:  33  09:48:47  -6.25  -4.88   -41.075600    2               +6.3199
iter:  34  09:48:53  -7.37  -5.05   -41.075602    2               +6.3204
iter:  35  09:49:00  -7.52  -5.01   -41.075599    2               +6.3199

Converged after 35 iterations.

Dipole moment: (-0.000202, -0.000212, -0.000212) |e|*Ang

Total magnetic moment: 6.319885
Local magnetic moments:
   0 Fe 2.049733
   1 Fe 2.070036
   2 Fe 2.070036
   3 Cu 0.052190
   4 Cu 0.037342
   5 Cu 0.074543
   6 Cu 0.074543
   7 Cu 0.037510

Energy contributions relative to reference atoms: (reference = -328965.623005)

Kinetic:        +39.310110
Potential:      -31.812619
External:        +0.000000
XC:             -49.325425
Entropy (-ST):   -0.197344
Local:           +0.851007
--------------------------
Free energy:    -41.174271
Extrapolated:   -41.075599

Spin contamination: 0.347487 electrons
Fermi level: 11.51557

Warning: Showing only first 2 kpts
                      Up                     Down
 Kpt  Band  Eigenvalues  Occupancy  Eigenvalues  Occupancy
  0    37     10.12482    0.00200     11.74614    0.00018
  0    38     10.25329    0.00200     11.90239    0.00004
  0    39     10.30232    0.00200     11.92719    0.00003
  0    40     10.76361    0.00200     12.40163    0.00000

  1    37     10.20018    0.00400     11.64939    0.00083
  1    38     10.23396    0.00400     11.98171    0.00004
  1    39     10.51513    0.00400     12.10553    0.00001
  1    40     10.72545    0.00400     12.35531    0.00000



Forces in eV/Ang:
  0 Fe   -0.00000   -0.00000   -0.00000
  1 Fe   -0.00000   -0.00000   -0.00000
  2 Fe   -0.00000   -0.00000   -0.00000
  3 Cu   -0.00000   -0.00000   -0.00000
  4 Cu   -0.00000   -0.00000   -0.00000
  5 Cu   -0.00000   -0.00000   -0.00000
  6 Cu   -0.00000   -0.00000   -0.00000
  7 Cu   -0.00000   -0.00000   -0.00000

Stress tensor:
    -0.310280    -0.000055    -0.000055
    -0.000055    -0.329027    -0.024733
    -0.000055    -0.024733    -0.329027
Writing to fecu_id10_relaxed.gpw (mode='')

System changes: positions, cell 

Initialize ...

Fe-setup:
  name: Iron
  id: 37abbd8d6c3c35915a9b583b742da910
  Z: 26
  valence: 8
  core: 18
  charge: 0.0
  file: /home/davidkl/gpaw-setups-0.9.20000/Fe.PBE.gz
  cutoffs: 1.06(comp), 2.06(filt), 2.67(core), lmax=2
  valence states:
                energy  radius
    4s(2.00)    -5.291   1.164
    4p(0.00)    -1.326   1.058
    3d(6.00)    -7.505   1.058
    *s          21.920   1.164
    *p          25.885   1.058
    *d          19.706   1.058

  Using partial waves for Fe as LCAO basis

Cu-setup:
  name: Copper
  id: f1c4d45d90492f1bbfdcb091e8418fdf
  Z: 29
  valence: 11
  core: 18
  charge: 0.0
  file: /home/davidkl/gpaw-setups-0.9.20000/Cu.PBE.gz
  cutoffs: 1.06(comp), 2.06(filt), 2.43(core), lmax=2
  valence states:
                energy  radius
    4s(1.00)    -4.609   1.164
    4p(0.00)    -0.698   1.164
    3d(10.00)    -5.039   1.058
    *s          22.603   1.164
    *p          26.513   1.164
    *d          22.172   1.058

  Using partial waves for Cu as LCAO basis

Reference energy: -328965.623005

Spin-polarized calculation.
Magnetic moment:  6.600000

Occupation numbers:
  Fermi-Dirac: width=0.1000 eV

Convergence criteria:
  Maximum total energy change: 0.0005 eV / electron
  Maximum integral of absolute density change: 0.0001 electrons
  Maximum integral of absolute eigenstate change: 4e-08 eV^2
  Maximum number of iterations: 333

Symmetries present (total): 2

  ( 1  0  0)  ( 1  0  0)
  ( 0  1  0)  ( 0  0  1)
  ( 0  0  1)  ( 0  1  0)

1000 k-points: 10 x 10 x 10 Monkhorst-Pack grid
275 k-points in the irreducible part of the Brillouin zone
       k-points in crystal coordinates                weights
   0:     0.05000000   -0.45000000   -0.45000000          2/1000
   1:     0.05000000   -0.35000000   -0.45000000          4/1000
   2:     0.05000000   -0.35000000   -0.35000000          2/1000
[...]

Converged after 38 iterations.

Dipole moment: (-0.000223, -0.000252, -0.000252) |e|*Ang

Total magnetic moment: 7.847311
Local magnetic moments:
   0 Fe 2.525543
   1 Fe 2.639631
   2 Fe 2.639631
   3 Cu 0.062330
   4 Cu 0.033529
   5 Cu 0.063944
   6 Cu 0.063944
   7 Cu 0.033650

Energy contributions relative to reference atoms: (reference = -328965.623005)

Kinetic:        -38.360610
Potential:      +29.340759
External:        +0.000000
XC:             -35.211792
Entropy (-ST):   -0.210915
Local:           +0.638469
--------------------------
Free energy:    -43.804090
Extrapolated:   -43.698632

Spin contamination: 0.462040 electrons
Fermi level: 8.64941

Warning: Showing only first 2 kpts
                      Up                     Down
 Kpt  Band  Eigenvalues  Occupancy  Eigenvalues  Occupancy
  0    37      7.05121    0.00200      9.00101    0.00006
  0    38      7.13916    0.00200      9.15649    0.00001
  0    39      7.25215    0.00200      9.24725    0.00001
  0    40      7.39329    0.00200      9.50221    0.00000

  1    37      7.06477    0.00400      8.99560    0.00012
  1    38      7.17019    0.00400      9.25259    0.00001
  1    39      7.25779    0.00400      9.32834    0.00000
  1    40      7.37092    0.00400      9.50420    0.00000



Forces in eV/Ang:
  0 Fe    0.00000    0.00000    0.00000
  1 Fe    0.00000   -0.00000    0.00000
  2 Fe    0.00000    0.00000   -0.00000
  3 Cu   -0.00000    0.00000    0.00000
  4 Cu    0.00000    0.00000    0.00000
  5 Cu   -0.00000   -0.00000    0.00000
  6 Cu   -0.00000    0.00000   -0.00000
  7 Cu   -0.00000   -0.00000   -0.00000

Stress tensor:
    -0.000819     0.000015     0.000015
     0.000015    -0.006674     0.000359
     0.000015     0.000359    -0.006674
Writing to fecu_id10_relaxed.gpw (mode='')

System changes: positions, cell 

Initialize ...

Fe-setup:
  name: Iron
  id: 37abbd8d6c3c35915a9b583b742da910
  Z: 26
  valence: 8
  core: 18
  charge: 0.0
  file: /home/davidkl/gpaw-setups-0.9.20000/Fe.PBE.gz
  cutoffs: 1.06(comp), 2.06(filt), 2.67(core), lmax=2
  valence states:
                energy  radius
    4s(2.00)    -5.291   1.164
    4p(0.00)    -1.326   1.058
    3d(6.00)    -7.505   1.058
    *s          21.920   1.164
    *p          25.885   1.058
    *d          19.706   1.058

  Using partial waves for Fe as LCAO basis

Cu-setup:
  name: Copper
  id: f1c4d45d90492f1bbfdcb091e8418fdf
  Z: 29
  valence: 11
  core: 18
  charge: 0.0
  file: /home/davidkl/gpaw-setups-0.9.20000/Cu.PBE.gz
  cutoffs: 1.06(comp), 2.06(filt), 2.43(core), lmax=2
  valence states:
                energy  radius
    4s(1.00)    -4.609   1.164
    4p(0.00)    -0.698   1.164
    3d(10.00)    -5.039   1.058
    *s          22.603   1.164
    *p          26.513   1.164
    *d          22.172   1.058

  Using partial waves for Cu as LCAO basis

Reference energy: -328965.623005

Spin-polarized calculation.
Magnetic moment:  6.600000

Occupation numbers:
  Fermi-Dirac: width=0.1000 eV

Convergence criteria:
  Maximum total energy change: 0.0005 eV / electron
  Maximum integral of absolute density change: 0.0001 electrons
  Maximum integral of absolute eigenstate change: 4e-08 eV^2
  Maximum number of iterations: 333

Symmetries present (total): 2

  ( 1  0  0)  ( 1  0  0)
  ( 0  1  0)  ( 0  0  1)
  ( 0  0  1)  ( 0  1  0)

1000 k-points: 10 x 10 x 10 Monkhorst-Pack grid
275 k-points in the irreducible part of the Brillouin zone
       k-points in crystal coordinates                weights
   0:     0.05000000   -0.45000000   -0.45000000          2/1000
   1:     0.05000000   -0.35000000   -0.45000000          4/1000
   2:     0.05000000   -0.35000000   -0.35000000          2/1000
   3:     0.05000000   -0.25000000   -0.45000000          4/1000
   4:     0.05000000   -0.25000000   -0.35000000          4/1000
   5:     0.05000000   -0.25000000   -0.25000000          2/1000
   6:     0.05000000   -0.15000000   -0.45000000          4/1000
   7:     0.05000000   -0.15000000   -0.35000000          4/1000
   8:     0.05000000   -0.15000000   -0.25000000          4/1000
   9:     0.05000000   -0.15000000   -0.15000000          2/1000
          ...
 274:     0.45000000    0.45000000    0.45000000          2/1000

Wave functions: Plane wave expansion
  Cutoff energy: 500.000 eV
  Number of coefficients (min, max): 2404, 2442
  Pulay-stress correction: 0.000000 eV/Ang^3 (de/decut=0.000000)
  Using FFTW library
  Eigensolver: None  MatrixOperator buffer_size: default value or 
                              see value of nblock in input file
Diagonalizer layout: Serial LAPACKOrthonormalizer layout: Serial LAPACK 

Davidson(niter=1, smin=None, normalize=True) 

Densities:
  Coarse grid: 21*21*21 grid
  Fine grid: 42*42*42 grid
  Total Charge: 0.000000 

Density mixing:
  Method: sum
  Backend: pulay
  Linear mixing parameter: 0.05
  Mixing with 5 old densities
  Damping of long wave oscillations: 50 

Hamiltonian:
  XC and Coulomb potentials evaluated on a 42*42*42 grid
  Using the PBE Exchange-Correlation functional
 

Memory estimate:
  Process memory now: 290.29 MiB
  Calculator: 65.84 MiB
    Density: 4.89 MiB
      Arrays: 2.47 MiB
      Localized functions: 1.71 MiB
      Mixer: 0.71 MiB
    Hamiltonian: 1.88 MiB
      Arrays: 1.84 MiB
      XC: 0.00 MiB
      Poisson: 0.00 MiB
      vbar: 0.04 MiB
    Wavefunctions: 59.07 MiB
      Arrays psit_nG: 43.07 MiB
      Eigensolver: 3.43 MiB
      Projections: 2.54 MiB
      Projectors: 6.60 MiB
      Overlap op: 2.60 MiB
      PW-descriptor: 0.82 MiB

Total number of cores used: 32
Parallelization over k-points and spin: 32

Number of atoms: 8
Number of atomic orbitals: 72
Number of bands in calculation: 68
Bands to converge: occupied states only
Number of valence electrons: 79

... initialized

Initializing position-dependent things.

Density initialized from atomic densities
Creating initial wave functions:
  68 bands from LCAO basis set

                             
                             
                             
                             
                             
           Cu                
         Cu     Cu           
             Cu              
              Fe             
           Fe     Cu         
                Fe           
                             
                             
                             
                             
                             

Positions:
   0 Fe     0.000003    0.000003    0.000003
   1 Fe     1.411624    1.437010   -1.436708
   2 Fe     1.411624   -1.436708    1.437010
   3 Cu     2.823245    0.000299    0.000299
   4 Cu    -1.411322    1.469819    1.469819
   5 Cu     0.000299    2.906827    0.033108
   6 Cu     0.000299    0.033108    2.906827
   7 Cu     1.411920    1.470115    1.470115

Unit cell:
           periodic     x           y           z      points  spacing
  1. axis:    yes   -2.822649    2.939632    2.939632    21     0.1980
  2. axis:    yes    2.823242   -2.873422    2.874015    21     0.1929
  3. axis:    yes    2.823242    2.874015   -2.873422    21     0.1929

  Lengths:   5.024960   4.948456   4.948456
  Angles:  110.425626 108.687799 108.687799

Effective grid spacing dv^(1/3) = 0.2176

                     log10-error:    total        iterations:
           time      wfs    density  energy       fermi  poisson  magmom
iter:   1  12:10:09  +2.04   +inf   -67.583900    33              +1.4515
iter:   2  12:10:17  +0.19   +inf   -68.081197    3               +1.4588
iter:   3  12:10:24  -0.87   +inf   -68.155049    2               +1.4601
iter:   4  12:10:32  +0.59  -1.03   -45.094283    34              +6.0854
iter:   5  12:10:40  -0.73  -1.34   -44.737956    3               +6.8786
iter:   6  12:10:49  -0.02  -1.42   -43.686058    31              +6.9848
iter:   7  12:10:57  -1.58  -1.83   -43.600274    2               +7.0789
iter:   8  12:11:05  -1.57  -1.91   -43.672147    3               +7.2686
iter:   9  12:11:13  -1.86  -2.01   -43.648911    2               +7.3500
iter:  10  12:11:21  -0.73  -2.11   -43.701797    3               +7.4382
iter:  11  12:11:29  -2.11  -2.34   -43.681167    2               +7.4804
iter:  12  12:11:37  -2.25  -2.45   -43.687765    2               +7.5523
iter:  13  12:11:45  -2.11  -2.59   -43.710333    3               +7.6575
iter:  14  12:11:53  -2.15  -2.97   -43.689126    2               +7.6813
iter:  15  12:12:02  -3.48  -3.08   -43.689633    2               +7.6972
iter:  16  12:12:10  -4.26  -3.12   -43.690385    2               +7.7045
iter:  17  12:12:18  -3.29  -3.15   -43.693731    2               +7.7276
iter:  18  12:12:26  -3.21  -3.32   -43.695762    2               +7.7499
iter:  19  12:12:34  -3.96  -3.60   -43.697968    2               +7.7862
iter:  20  12:12:42  -4.10  -3.81   -43.698208    2               +7.7943
iter:  21  12:12:50  -4.96  -3.87   -43.698372    2               +7.7978
iter:  22  12:12:58  -4.51  -3.90   -43.698916    2               +7.8084
iter:  23  12:13:06  -5.20  -4.06   -43.698853    2               +7.8081
iter:  24  12:13:15  -5.63  -4.08   -43.698949    2               +7.8118
iter:  25  12:13:23  -6.24  -4.18   -43.699034    2               +7.8145
iter:  26  12:13:31  -6.38  -4.22   -43.699010    2               +7.8136
iter:  27  12:13:39  -5.19  -4.20   -43.699234    2               +7.8224
iter:  28  12:13:47  -6.07  -4.24   -43.699254    2               +7.8225
iter:  29  12:13:55  -6.08  -4.15   -43.699291    2               +7.8252
iter:  30  12:14:03  -6.70  -4.23   -43.699283    2               +7.8252
iter:  31  12:14:11  -5.55  -4.24   -43.699261    2               +7.8235
iter:  32  12:14:20  -6.01  -4.27   -43.699300    2               +7.8260
iter:  33  12:14:28  -6.28  -4.30   -43.699323    2               +7.8278
iter:  34  12:14:36  -5.31  -4.35   -43.699346    2               +7.8307
iter:  35  12:14:44  -5.71  -4.49   -43.699296    2               +7.8273
iter:  36  12:14:52  -6.65  -4.62   -43.699306    2               +7.8280
iter:  37  12:15:00  -5.74  -4.63   -43.699369    2               +7.8322
iter:  38  12:15:08  -6.56  -4.80   -43.699365    2               +7.8321
iter:  39  12:15:16  -6.15  -4.86   -43.699382    2               +7.8335
iter:  40  12:15:25  -6.16  -4.95   -43.699363    2               +7.8316
iter:  41  12:15:33  -6.71  -4.84   -43.699370    2               +7.8322
iter:  42  12:15:41  -5.99  -4.91   -43.699400    2               +7.8353
iter:  43  12:15:49  -7.23  -5.09   -43.699401    2               +7.8355
iter:  44  12:15:57  -7.60  -5.18   -43.699399    2               +7.8355

Converged after 44 iterations.

Dipole moment: (-0.000220, -0.000251, -0.000251) |e|*Ang

Total magnetic moment: 7.835519
Local magnetic moments:
   0 Fe 2.526120
   1 Fe 2.637695
   2 Fe 2.637695
   3 Cu 0.061318
   4 Cu 0.033259
   5 Cu 0.064001
   6 Cu 0.064001
   7 Cu 0.033372

Energy contributions relative to reference atoms: (reference = -328965.623005)

Kinetic:        -37.973134
Potential:      +29.039285
External:        +0.000000
XC:             -35.299560
Entropy (-ST):   -0.210065
Local:           +0.639043
--------------------------
Free energy:    -43.804432
Extrapolated:   -43.699399

Spin contamination: 0.460876 electrons
Fermi level: 8.66650

Warning: Showing only first 2 kpts
                      Up                     Down
 Kpt  Band  Eigenvalues  Occupancy  Eigenvalues  Occupancy
  0    37      7.07045    0.00200      9.02083    0.00006
  0    38      7.16657    0.00200      9.19049    0.00001
  0    39      7.27714    0.00200      9.26997    0.00000
  0    40      7.42428    0.00200      9.52414    0.00000

  1    37      7.08791    0.00400      9.01539    0.00012
  1    38      7.19201    0.00400      9.27611    0.00001
  1    39      7.28180    0.00400      9.35151    0.00000
  1    40      7.39089    0.00400      9.52341    0.00000



Forces in eV/Ang:
  0 Fe    0.00000    0.00000    0.00000
  1 Fe    0.00000   -0.00000    0.00000
  2 Fe    0.00000    0.00000   -0.00000
  3 Cu   -0.00000    0.00000    0.00000
  4 Cu    0.00000    0.00000    0.00000
  5 Cu   -0.00000   -0.00000    0.00000
  6 Cu   -0.00000    0.00000   -0.00000
  7 Cu   -0.00000   -0.00000   -0.00000

Stress tensor:
    -0.002230     0.000024     0.000024
     0.000024    -0.007927    -0.000485
     0.000024    -0.000485    -0.007927
Writing to fecu_id10_relaxed.gpw (mode='')

System changes: positions, cell 

Initialize ...

Fe-setup:
  name: Iron
  id: 37abbd8d6c3c35915a9b583b742da910
  Z: 26
  valence: 8
  core: 18
  charge: 0.0
  file: /home/davidkl/gpaw-setups-0.9.20000/Fe.PBE.gz
  cutoffs: 1.06(comp), 2.06(filt), 2.67(core), lmax=2
  valence states:
                energy  radius
    4s(2.00)    -5.291   1.164
    4p(0.00)    -1.326   1.058
    3d(6.00)    -7.505   1.058
    *s          21.920   1.164
    *p          25.885   1.058
    *d          19.706   1.058

  Using partial waves for Fe as LCAO basis

Cu-setup:
  name: Copper
  id: f1c4d45d90492f1bbfdcb091e8418fdf
  Z: 29
  valence: 11
  core: 18
  charge: 0.0
  file: /home/davidkl/gpaw-setups-0.9.20000/Cu.PBE.gz
  cutoffs: 1.06(comp), 2.06(filt), 2.43(core), lmax=2
  valence states:
                energy  radius
    4s(1.00)    -4.609   1.164
    4p(0.00)    -0.698   1.164
    3d(10.00)    -5.039   1.058
    *s          22.603   1.164
    *p          26.513   1.164
    *d          22.172   1.058

  Using partial waves for Cu as LCAO basis

Reference energy: -328965.623005

Spin-polarized calculation.
Magnetic moment:  6.600000

Occupation numbers:
  Fermi-Dirac: width=0.1000 eV

Convergence criteria:
  Maximum total energy change: 0.0005 eV / electron
  Maximum integral of absolute density change: 0.0001 electrons
  Maximum integral of absolute eigenstate change: 4e-08 eV^2
  Maximum number of iterations: 333

Symmetries present (total): 2

  ( 1  0  0)  ( 1  0  0)
  ( 0  1  0)  ( 0  0  1)
  ( 0  0  1)  ( 0  1  0)

1000 k-points: 10 x 10 x 10 Monkhorst-Pack grid
275 k-points in the irreducible part of the Brillouin zone
       k-points in crystal coordinates                weights
   0:     0.05000000   -0.45000000   -0.45000000          2/1000
   1:     0.05000000   -0.35000000   -0.45000000          4/1000
   2:     0.05000000   -0.35000000   -0.35000000          2/1000
   3:     0.05000000   -0.25000000   -0.45000000          4/1000
   4:     0.05000000   -0.25000000   -0.35000000          4/1000
   5:     0.05000000   -0.25000000   -0.25000000          2/1000
   6:     0.05000000   -0.15000000   -0.45000000          4/1000
   7:     0.05000000   -0.15000000   -0.35000000          4/1000
   8:     0.05000000   -0.15000000   -0.25000000          4/1000
   9:     0.05000000   -0.15000000   -0.15000000          2/1000
          ...
 274:     0.45000000    0.45000000    0.45000000          2/1000

Wave functions: Plane wave expansion
  Cutoff energy: 500.000 eV
  Number of coefficients (min, max): 2401, 2440
  Pulay-stress correction: 0.000000 eV/Ang^3 (de/decut=0.000000)
  Using FFTW library
  Eigensolver: None  MatrixOperator buffer_size: default value or 
                              see value of nblock in input file
Diagonalizer layout: Serial LAPACKOrthonormalizer layout: Serial LAPACK 

Davidson(niter=1, smin=None, normalize=True) 

Densities:
  Coarse grid: 21*21*21 grid
  Fine grid: 42*42*42 grid
  Total Charge: 0.000000 

Density mixing:
  Method: sum
  Backend: pulay
  Linear mixing parameter: 0.05
  Mixing with 5 old densities
  Damping of long wave oscillations: 50 

Hamiltonian:
  XC and Coulomb potentials evaluated on a 42*42*42 grid
  Using the PBE Exchange-Correlation functional
 

Memory estimate:
  Process memory now: 290.29 MiB
  Calculator: 65.79 MiB
    Density: 4.89 MiB
      Arrays: 2.47 MiB
      Localized functions: 1.71 MiB
      Mixer: 0.71 MiB
    Hamiltonian: 1.88 MiB
      Arrays: 1.84 MiB
      XC: 0.00 MiB
      Poisson: 0.00 MiB
      vbar: 0.04 MiB
    Wavefunctions: 59.02 MiB
      Arrays psit_nG: 43.04 MiB
      Eigensolver: 3.43 MiB
      Projections: 2.54 MiB
      Projectors: 6.59 MiB
      Overlap op: 2.60 MiB
      PW-descriptor: 0.82 MiB

Total number of cores used: 32
Parallelization over k-points and spin: 32

Number of atoms: 8
Number of atomic orbitals: 72
Number of bands in calculation: 68
Bands to converge: occupied states only
Number of valence electrons: 79

... initialized

Initializing position-dependent things.

Density initialized from atomic densities
Creating initial wave functions:
  68 bands from LCAO basis set

                             
                             
                             
                             
                             
           Cu                
         Cu     Cu           
             Cu              
              Fe             
           Fe     Cu         
                Fe           
                             
                             
                             
                             
                             

Positions:
   0 Fe     0.000003    0.000003    0.000003
   1 Fe     1.405124    1.440499   -1.440172
   2 Fe     1.405124   -1.440172    1.440499
   3 Cu     2.810245    0.000325    0.000325
   4 Cu    -1.404795    1.471910    1.471910
   5 Cu     0.000326    2.912407    0.031735
   6 Cu     0.000326    0.031735    2.912407
   7 Cu     1.405447    1.472232    1.472232

Unit cell:
           periodic     x           y           z      points  spacing
  1. axis:    yes   -2.809596    2.943814    2.943814    21     0.1983
  2. axis:    yes    2.810242   -2.880349    2.880993    21     0.1926
  3. axis:    yes    2.810242    2.880993   -2.880349    21     0.1926

  Lengths:   5.022541   4.949141   4.949141
  Angles:  110.802713 108.515619 108.515619

Effective grid spacing dv^(1/3) = 0.2175

                     log10-error:    total        iterations:
           time      wfs    density  energy       fermi  poisson  magmom
iter:   1  12:16:35  +2.04   +inf   -67.615452    37              +1.4504
iter:   2  12:16:43  +0.19   +inf   -68.113404    3               +1.4576
iter:   3  12:16:50  -0.87   +inf   -68.187472    2               +1.4589
iter:   4  12:16:58  +0.59  -1.03   -45.107332    32              +6.0726
iter:   5  12:17:06  -0.73  -1.34   -44.743700    3               +6.8653
iter:   6  12:17:14  -0.02  -1.42   -43.689655    34              +6.9787
iter:   7  12:17:22  -1.51  -1.83   -43.603066    2               +7.0845
iter:   8  12:17:30  -1.73  -1.91   -43.651889    3               +7.2384
iter:   9  12:17:38  -1.99  -2.00   -43.650882    3               +7.3315
iter:  10  12:17:46  -0.77  -2.11   -43.694955    2               +7.4516
iter:  11  12:17:54  -2.30  -2.39   -43.681374    2               +7.4775
iter:  12  12:18:03  -1.87  -2.45   -43.700308    3               +7.5762
iter:  13  12:18:11  -2.41  -2.64   -43.709623    3               +7.6530
iter:  14  12:18:19  -2.23  -2.88   -43.693055    2               +7.6878
iter:  15  12:18:27  -2.76  -3.06   -43.692820    2               +7.6928
iter:  16  12:18:35  -3.72  -3.15   -43.693830    2               +7.7015
iter:  17  12:18:43  -3.75  -3.18   -43.697857    2               +7.7410
iter:  18  12:18:51  -3.58  -3.35   -43.698792    2               +7.7625
iter:  19  12:18:59  -4.69  -3.50   -43.699363    2               +7.7717
iter:  20  12:19:07  -4.59  -3.56   -43.699628    2               +7.7776
iter:  21  12:19:15  -4.07  -3.66   -43.699863    2               +7.7865
iter:  22  12:19:23  -5.20  -3.88   -43.699956    2               +7.7889
iter:  23  12:19:31  -5.23  -4.08   -43.699931    2               +7.7871
iter:  24  12:19:39  -5.23  -4.15   -43.700099    2               +7.7907
iter:  25  12:19:47  -6.03  -4.17   -43.700078    2               +7.7896
iter:  26  12:19:55  -5.41  -4.17   -43.700074    2               +7.7904
iter:  27  12:20:03  -6.01  -4.17   -43.700099    2               +7.7906
